96
Lattice="10.381444 0.0 -0.053824 0.0 10.490337 0.0 -1.746774 0.0 10.614441" Properties=species:S:1:pos:R:3:forces:R:3 energy=-920.99870237 stress="0.05514 0.0 -0.06608 0.0 0.02162 0.0 -0.06608 0.0 -0.1313" pbc="T T T"
O        0.61434000       9.14320000      10.47430000      -0.00043200       0.00175800       0.00119700
O        8.59969000       3.52898000       8.70845000       0.00030100      -0.00074500       0.00204200
O        4.35231000       1.71619000       7.13248000      -0.00030100       0.00074500      -0.00204200
O        6.67845000       3.89803000       5.14017000      -0.00043200       0.00175800       0.00119700
O        8.02033000       1.34713000       0.08631000       0.00043200      -0.00175800      -0.00119700
O        7.58363000       1.27545000       2.73992000       0.00043200       0.00175800      -0.00119700
O        7.11515000       3.96972000       2.48656000      -0.00043200      -0.00175800       0.00119700
O        4.78901000       0.90639000       4.47887000      -0.00030100      -0.00074500      -0.00204200
O        9.03638000       4.33878000       6.05484000       0.00030100       0.00074500       0.00204200
O        9.90977000       4.33878000       0.74762000       0.00030100       0.00074500       0.00204200
O        5.22570000       1.71619000       1.82526000      -0.00030100       0.00074500      -0.00204200
O        7.14694000       6.59230000       5.39353000       0.00043200      -0.00175800      -0.00119700
O        1.95622000       6.59230000       5.42045000       0.00043200      -0.00175800      -0.00119700
O        1.51952000       6.52062000       8.07406000       0.00043200       0.00175800      -0.00119700
O        1.05104000       9.21489000       7.82069000      -0.00043200      -0.00175800       0.00119700
O       -1.27510000       6.15156000       9.81300000      -0.00030100      -0.00074500      -0.00204200
O        3.84566000       9.58394000       6.08175000       0.00030100       0.00074500       0.00204200
O        9.47308000       3.52898000       3.40123000       0.00030100      -0.00074500       0.00204200
O        3.40897000       8.77414000       8.73536000       0.00030100      -0.00074500       0.00204200
O        3.91562000       0.90639000       9.78609000      -0.00030100      -0.00074500      -0.00204200
O        6.71025000       1.27545000       8.04714000       0.00043200       0.00175800      -0.00119700
O        6.71025000       6.52062000       8.04714000       0.00043200       0.00175800      -0.00119700
O        6.24176000       9.21489000       7.79378000      -0.00043200      -0.00175800       0.00119700
O        3.91562000       6.15156000       9.78609000      -0.00030100      -0.00074500      -0.00204200
O        9.03638000       9.58394000       6.05484000       0.00030100       0.00074500       0.00204200
O        8.59969000       8.77414000       8.70845000       0.00030100      -0.00074500       0.00204200
O        4.35231000       6.96136000       7.13248000      -0.00030100       0.00074500      -0.00204200
O        6.67845000       9.14320000       5.14017000      -0.00043200       0.00175800       0.00119700
O        6.24176000       3.96972000       7.79378000      -0.00043200      -0.00175800       0.00119700
O        8.02033000       6.59230000       0.08631000       0.00043200      -0.00175800      -0.00119700
O        7.11515000       9.21489000       2.48656000      -0.00043200      -0.00175800       0.00119700
O        4.78901000       6.15156000       4.47887000      -0.00030100      -0.00074500      -0.00204200
O        9.90977000       9.58394000       0.74762000       0.00030100       0.00074500       0.00204200
O        9.47308000       8.77414000       3.40123000       0.00030100      -0.00074500       0.00204200
O        5.22570000       6.96136000       1.82526000      -0.00030100       0.00074500      -0.00204200
O        5.80506000       3.89803000      10.44739000      -0.00043200       0.00175800       0.00119700
O        7.14694000       1.34713000       5.39353000       0.00043200      -0.00175800      -0.00119700
O        7.58363000       6.52062000       2.73992000       0.00043200       0.00175800      -0.00119700
O       -0.83841000       6.96136000       7.15939000      -0.00030100       0.00074500      -0.00204200
O        5.80506000       9.14320000      10.44739000      -0.00043200       0.00175800       0.00119700
O       -1.27510000       0.90639000       9.81300000      -0.00030100      -0.00074500      -0.00204200
O        2.82960000       1.34713000       0.11323000       0.00043200      -0.00175800      -0.00119700
O        2.39291000       1.27545000       2.76684000       0.00043200       0.00175800      -0.00119700
O        1.92442000       3.96972000       2.51347000      -0.00043200      -0.00175800       0.00119700
O       -0.40171000       0.90639000       4.50578000      -0.00030100      -0.00074500      -0.00204200
O        0.61434000       3.89803000      10.47430000      -0.00043200       0.00175800       0.00119700
O        1.05104000       3.96972000       7.82069000      -0.00043200      -0.00175800       0.00119700
O        1.48773000       3.89803000       5.16708000      -0.00043200       0.00175800       0.00119700
O        3.84566000       4.33878000       6.08175000       0.00030100       0.00074500       0.00204200
O        3.40897000       3.52898000       8.73536000       0.00030100      -0.00074500       0.00204200
O        0.03498000       6.96136000       1.85217000      -0.00030100       0.00074500      -0.00204200
O        4.28236000       8.77414000       3.42814000       0.00030100      -0.00074500       0.00204200
O        4.71905000       9.58394000       0.77453000       0.00030100       0.00074500       0.00204200
O        4.71905000       4.33878000       0.77453000       0.00030100       0.00074500       0.00204200
O        4.28236000       3.52898000       3.42814000       0.00030100      -0.00074500       0.00204200
O        0.03498000       1.71619000       1.85217000      -0.00030100       0.00074500      -0.00204200
O       -0.83841000       1.71619000       7.15939000      -0.00030100       0.00074500      -0.00204200
O       -0.40171000       6.15156000       4.50578000      -0.00030100      -0.00074500      -0.00204200
O        1.92442000       9.21489000       2.51347000      -0.00043200      -0.00175800       0.00119700
O        2.39291000       6.52062000       2.76684000       0.00043200       0.00175800      -0.00119700
O        2.82960000       6.59230000       0.11323000       0.00043200      -0.00175800      -0.00119700
O        1.48773000       9.14320000       5.16708000      -0.00043200       0.00175800       0.00119700
O        1.95622000       1.34713000       5.42045000       0.00043200      -0.00175800      -0.00119700
O        1.51952000       1.27545000       8.07406000       0.00043200       0.00175800      -0.00119700
Zr       0.37497000       0.22822000       6.41431000       0.00056000       0.00128800       0.00020200
Zr       2.19559000       5.01695000       9.48044000      -0.00056000      -0.00128800      -0.00020200
Zr       7.38631000      10.26212000       9.45353000      -0.00056000      -0.00128800      -0.00020200
Zr       2.63229000       2.85080000       6.82683000      -0.00056000       0.00128800      -0.00020200
Zr       7.82301000       8.09597000       6.79992000      -0.00056000       0.00128800      -0.00020200
Zr       5.12900000       7.63954000       9.04101000       0.00056000      -0.00128800       0.00020200
Zr       0.81166000       2.39437000       3.76070000       0.00056000      -0.00128800       0.00020200
Zr       3.50567000       2.85080000       1.51961000      -0.00056000       0.00128800      -0.00020200
Zr       3.06898000       5.01695000       4.17322000      -0.00056000      -0.00128800      -0.00020200
Zr       5.56569000       5.47339000       6.38740000       0.00056000       0.00128800       0.00020200
Zr       6.00238000       7.63954000       3.73379000       0.00056000      -0.00128800       0.00020200
Zr       2.63229000       8.09597000       6.82683000      -0.00056000       0.00128800      -0.00020200
Zr       8.25970000      10.26212000       4.14631000      -0.00056000      -0.00128800      -0.00020200
Zr       2.19559000      10.26212000       9.48044000      -0.00056000      -0.00128800      -0.00020200
Zr       0.37497000       5.47339000       6.41431000       0.00056000       0.00128800       0.00020200
Zr       6.43908000       0.22822000       1.08018000       0.00056000       0.00128800       0.00020200
Zr       8.25970000       5.01695000       4.14631000      -0.00056000      -0.00128800      -0.00020200
Zr       8.69640000       2.85080000       1.49270000      -0.00056000       0.00128800      -0.00020200
Zr       6.00238000       2.39437000       3.73379000       0.00056000      -0.00128800       0.00020200
Zr       0.81166000       7.63954000       3.76070000       0.00056000      -0.00128800       0.00020200
Zr       3.50567000       8.09597000       1.51961000      -0.00056000       0.00128800      -0.00020200
Zr       3.06898000      10.26212000       4.17322000      -0.00056000      -0.00128800      -0.00020200
Zr       1.24835000       5.47339000       1.10709000       0.00056000       0.00128800       0.00020200
Zr       5.56569000       0.22822000       6.38740000       0.00056000       0.00128800       0.00020200
Zr       7.38631000       5.01695000       9.45353000      -0.00056000      -0.00128800      -0.00020200
Zr       7.82301000       2.85080000       6.79992000      -0.00056000       0.00128800      -0.00020200
Zr       5.12900000       2.39437000       9.04101000       0.00056000      -0.00128800       0.00020200
Zr      -0.06173000       7.63954000       9.06792000       0.00056000      -0.00128800       0.00020200
Zr      -0.06173000       2.39437000       9.06792000       0.00056000      -0.00128800       0.00020200
Zr       6.43908000       5.47339000       1.08018000       0.00056000       0.00128800       0.00020200
Zr       8.69640000       8.09597000       1.49270000      -0.00056000       0.00128800      -0.00020200
Zr       1.24835000       0.22822000       1.10709000       0.00056000       0.00128800       0.00020200
