95
Lattice="10.381444 0.0 -0.053824 0.0 10.490337 0.0 -1.746774 0.0 10.614441" Properties=species:S:1:pos:R:3:forces:R:3 energy=-909.96743718 stress="-0.87772 0.06335 -0.06313 0.06335 -1.19266 0.3937 -0.06313 0.3937 -1.98194" pbc="T T T"
O        0.61434000       9.14320000      10.47430000       0.00313100       0.00044500       0.00184000
O        8.59969000       3.52898000       8.70845000       0.01715800       0.10208000       0.11225000
O        4.35231000       1.71619000       7.13248000       0.01039100       0.00671200      -0.01334600
O        8.02033000       1.34713000       0.08631000      -0.00849500       0.00219700       0.00140400
O        7.58363000       1.27545000       2.73992000      -0.04233000       0.01132300       0.01417000
O        7.11515000       3.96972000       2.48656000      -0.15299000      -0.01555700       0.48075600
O        4.78901000       0.90639000       4.47887000       0.02248300       0.02198700       0.02514300
O        9.90977000       4.33878000       0.74762000      -0.00656200      -0.00461600      -0.00334500
O        9.47308000       3.52898000       3.40123000      -0.01443200      -0.03257900      -0.00675700
O        5.22570000       1.71619000       1.82526000       0.00913700       0.05972100      -0.03436300
O        7.14694000       6.59230000       5.39353000      -0.08947800      -0.32663100      -0.03421200
O        1.95622000       6.59230000       5.42045000       0.08372400      -0.02526000      -0.00164200
O        1.51952000       6.52062000       8.07406000       0.00815500      -0.00298500      -0.00133900
O        1.05104000       9.21489000       7.82069000       0.00417300      -0.00792100       0.01078800
O       -1.27510000       6.15156000       9.81300000      -0.01105300       0.00288500       0.00048500
O        3.84566000       9.58394000       6.08175000       0.01913400       0.00885700       0.00713700
O        9.03638000       4.33878000       6.05484000      -0.38770500      -0.10953000      -0.04517200
O        3.91562000       0.90639000       9.78609000       0.00935100       0.01281400      -0.00550900
O        6.24176000       3.96972000       7.79378000      -0.02838000       0.03266000      -0.54519600
O        6.71025000       1.27545000       8.04714000      -0.06245700      -0.04259900       0.02834000
O        6.71025000       6.52062000       8.04714000      -0.00945000       0.00139700      -0.01427200
O        6.24176000       9.21489000       7.79378000      -0.00417300      -0.00910000      -0.01251100
O        3.91562000       6.15156000       9.78609000       0.00140300      -0.00435300      -0.00072500
O        9.03638000       9.58394000       6.05484000      -0.03141300      -0.00239100      -0.00501500
O        8.59969000       8.77414000       8.70845000      -0.00352800      -0.00716400      -0.00874300
O        4.35231000       6.96136000       7.13248000       0.01257500       0.03456100      -0.01144900
O        6.67845000       9.14320000       5.14017000      -0.00405800      -0.00579700       0.00690400
O        3.40897000       8.77414000       8.73536000       0.00845500      -0.00687200       0.00375500
O        8.02033000       6.59230000       0.08631000      -0.00759800      -0.00766700      -0.01019700
O        7.11515000       9.21489000       2.48656000      -0.01265400       0.00518500       0.00967900
O        4.78901000       6.15156000       4.47887000       0.07008300      -0.09003900       0.04398400
O        9.90977000       9.58394000       0.74762000       0.00328800       0.00616300       0.00170300
O        9.47308000       8.77414000       3.40123000      -0.02378000       0.02447200       0.00721100
O        5.22570000       6.96136000       1.82526000      -0.00975600      -0.00060300       0.00008000
O        5.80506000       3.89803000      10.44739000      -0.01197200       0.00072000      -0.00476700
O        7.14694000       1.34713000       5.39353000      -0.19865000       0.65086500      -0.07473000
O        7.58363000       6.52062000       2.73992000      -0.07918700       0.07776200      -0.04359400
O       -0.83841000       6.96136000       7.15939000      -0.01547800       0.00750300       0.00466800
O        5.80506000       9.14320000      10.44739000      -0.00749800      -0.00028100      -0.00057100
O       -1.27510000       0.90639000       9.81300000      -0.00054200      -0.01269700       0.01159400
O        2.82960000       1.34713000       0.11323000       0.01239100       0.00305400       0.01354200
O        2.39291000       1.27545000       2.76684000       0.01213000       0.01054700      -0.00072100
O        1.92442000       3.96972000       2.51347000       0.02742700      -0.00592200       0.01902900
O       -0.40171000       0.90639000       4.50578000      -0.00674500      -0.01407500      -0.01759600
O        0.61434000       3.89803000      10.47430000       0.01575200       0.00695200       0.01529200
O        1.05104000       3.96972000       7.82069000       0.02816600      -0.00628000      -0.00156800
O        1.48773000       3.89803000       5.16708000       0.03981800       0.01262800       0.00889400
O        3.84566000       4.33878000       6.08175000       0.20762300      -0.01756300      -0.05582200
O        3.40897000       3.52898000       8.73536000       0.01114900       0.00059200      -0.00869500
O        0.03498000       6.96136000       1.85217000       0.00839700       0.00005400      -0.01775400
O        4.28236000       8.77414000       3.42814000       0.01534400      -0.01337200       0.00715800
O        4.71905000       4.33878000       0.77453000       0.00436600      -0.00435300       0.01242500
O        4.28236000       3.52898000       3.42814000       0.14594400       0.02637700       0.13147600
O        0.03498000       1.71619000       1.85217000      -0.00362700       0.00278600      -0.01065400
O       -0.83841000       1.71619000       7.15939000       0.14449400      -0.06329700      -0.03607200
O        4.71905000       9.58394000       0.77453000       0.00507600       0.00517900       0.00443700
O       -0.40171000       6.15156000       4.50578000       0.15975100       0.12197700       0.11676100
O        1.92442000       9.21489000       2.51347000       0.01209000       0.00374000      -0.00208400
O        2.39291000       6.52062000       2.76684000       0.02767800      -0.01797900       0.00869700
O        2.82960000       6.59230000       0.11323000       0.00492000      -0.00242900      -0.00159700
O        1.48773000       9.14320000       5.16708000       0.01676400       0.00791700       0.00554400
O        1.95622000       1.34713000       5.42045000       0.02062300       0.01056400       0.00052200
O        1.51952000       1.27545000       8.07406000       0.02862800       0.00153300       0.00061500
Zr       0.37497000       0.22822000       6.41431000      -0.03041900       0.04331600       0.02518900
Zr       2.19559000       5.01695000       9.48044000      -0.02354100       0.00420100       0.00260800
Zr       7.38631000      10.26212000       9.45353000       0.00859100       0.02806900      -0.01059200
Zr       2.63229000       2.85080000       6.82683000      -0.08668100      -0.06925700       0.03002300
Zr       7.82301000       8.09597000       6.79992000       0.03952700       0.01152100       0.05239900
Zr       5.12900000       7.63954000       9.04101000       0.00892500       0.01669100       0.02097800
Zr       0.81166000       2.39437000       3.76070000      -0.05918300      -0.00325700       0.00458600
Zr       3.50567000       2.85080000       1.51961000      -0.01241600      -0.02528800      -0.04577400
Zr       3.06898000       5.01695000       4.17322000      -0.12957600       0.04222900      -0.03959400
Zr       5.56569000       5.47339000       6.38740000      -0.11016400       0.23243800       0.27380300
Zr       6.00238000       7.63954000       3.73379000       0.04635100       0.00604600      -0.08651700
Zr      -0.06173000       7.63954000       9.06792000      -0.00050000       0.00259100      -0.00372900
Zr       8.25970000      10.26212000       4.14631000       0.07377900      -0.02610900      -0.05512100
Zr       2.19559000      10.26212000       9.48044000      -0.01775900      -0.00167100      -0.00998100
Zr       0.37497000       5.47339000       6.41431000      -0.10381300       0.06218100      -0.08676000
Zr       6.43908000       0.22822000       1.08018000       0.01286000      -0.01347700       0.00105700
Zr       8.25970000       5.01695000       4.14631000       0.16647800      -0.10482400      -0.20524100
Zr       8.69640000       2.85080000       1.49270000       0.05557800      -0.01569100       0.05913500
Zr       6.00238000       2.39437000       3.73379000       0.14075800      -0.33340200      -0.17294600
Zr       0.81166000       7.63954000       3.76070000      -0.07277900      -0.06339800       0.02842000
Zr       3.50567000       8.09597000       1.51961000      -0.01432100       0.00451900      -0.00792200
Zr       3.06898000      10.26212000       4.17322000      -0.02734800      -0.00668500      -0.00101700
Zr       1.24835000       5.47339000       1.10709000      -0.02745600       0.01562400       0.00261900
Zr       5.56569000       0.22822000       6.38740000      -0.06612700      -0.02562800       0.05365100
Zr       7.38631000       5.01695000       9.45353000       0.11282300      -0.01878400       0.00730800
Zr       7.82301000       2.85080000       6.79992000       0.24467200      -0.16208900       0.09538400
Zr       5.12900000       2.39437000       9.04101000      -0.00091300      -0.08178900       0.01989500
Zr       2.63229000       8.09597000       6.82683000      -0.05374300       0.01672300      -0.00628300
Zr      -0.06173000       2.39437000       9.06792000      -0.06800900       0.00293000      -0.04657500
Zr       6.43908000       5.47339000       1.08018000       0.00569100       0.07112800      -0.00187200
Zr       8.69640000       8.09597000       1.49270000       0.00219600      -0.03141700       0.02488900
Zr       1.24835000       0.22822000       1.10709000      -0.01066100      -0.00174000      -0.00828000
95
Lattice="10.381444 0.0 -0.053824 0.0 10.490337 0.0 -1.746774 0.0 10.614441" Properties=species:S:1:pos:R:3:forces:R:3 energy=-910.02374716 stress="-0.00193 -0.48253 0.0535 -0.48253 -0.63344 0.74469 0.0535 0.74469 -1.61259" pbc="T T T"
O        0.61449000       9.14322000      10.47439000      -0.00843500       0.00125700      -0.01208800
O        8.60052000       3.53390000       8.71386000       0.08311400       0.00871700       0.10497300
O        4.35282000       1.71652000       7.13183000      -0.02205800      -0.02605400       0.02672300
O        8.01992000       1.34724000       0.08638000       0.01716500      -0.00279200       0.02739700
O        7.58159000       1.27600000       2.74061000       0.08743300      -0.09500000      -0.06235200
O        7.10777000       3.96897000       2.50975000      -0.00430000       0.03893300       0.15577300
O        4.79009000       0.90745000       4.48008000      -0.09396100      -0.15222800       0.04899100
O        9.90945000       4.33855000       0.74746000      -0.00502400      -0.00570600       0.02878200
O        9.47238000       3.52740000       3.40090000       0.11015000      -0.09506800      -0.05735500
O        5.22614000       1.71907000       1.82360000       0.02602500      -0.05092900      -0.13352400
O        7.14262000       6.57654000       5.39188000       0.04147300      -0.07235100       0.01819800
O        1.96026000       6.59108000       5.42037000       0.03818100       0.00204200       0.03207500
O        1.51992000       6.52047000       8.07399000      -0.02774800       0.01383000      -0.02311600
O        1.05124000       9.21450000       7.82121000      -0.02180100       0.01017000       0.00829000
O       -1.27563000       6.15170000       9.81302000       0.00492000       0.02006800       0.00851900
O        3.84658000       9.58437000       6.08209000      -0.01984400      -0.01343500       0.02568600
O        9.01768000       4.33349000       6.05266000       0.00966900       0.08545500      -0.03418800
O        3.91607000       0.90701000       9.78582000      -0.00851100      -0.01847000       0.00325500
O        6.24039000       3.97129000       7.76748000       0.06307000      -0.05825600      -0.21025900
O        6.70723000       1.27340000       8.04851000      -0.00920500      -0.07501200       0.06612700
O        6.70979000       6.52069000       8.04646000       0.02450000       0.05445200       0.09100600
O        6.24156000       9.21445000       7.79318000       0.01327500      -0.01792800       0.01681600
O        3.91569000       6.15135000       9.78605000       0.00846500       0.01386800       0.00226100
O        9.03487000       9.58383000       6.05460000      -0.00415600       0.04466000      -0.01196300
O        8.59952000       8.77380000       8.70803000       0.00800500       0.00257400      -0.00198500
O        4.35292000       6.96303000       7.13193000      -0.10111700       0.17553300       0.08229200
O        6.67826000       9.14292000       5.14050000       0.05507800       0.02976200       0.00640200
O        3.40938000       8.77381000       8.73554000      -0.01514300       0.01507000       0.00723600
O        8.01996000       6.59193000       0.08582000       0.01544500       0.01274200       0.00478500
O        7.11454000       9.21514000       2.48703000       0.01888800       0.02853200      -0.01235500
O        4.79239000       6.14722000       4.48099000       0.01417800       0.02606400      -0.05007800
O        9.90993000       9.58424000       0.74770000      -0.00403500       0.00010100       0.00877000
O        9.47193000       8.77532000       3.40158000      -0.01412500       0.01217500      -0.00020700
O        5.22523000       6.96133000       1.82526000      -0.02988400       0.01392200      -0.04110300
O        5.80449000       3.89807000      10.44716000       0.02535800      -0.00374200       0.00490800
O        7.13736000       1.37853000       5.38993000      -0.12841500       0.26363800      -0.04909100
O        7.57981000       6.52437000       2.73782000       0.01901400       0.06837600      -0.09744300
O       -0.83915000       6.96172000       7.15962000      -0.00015700      -0.00251500       0.01503400
O        5.80470000       9.14319000      10.44736000       0.00994000       0.00830800       0.00992600
O       -1.27513000       0.90578000       9.81356000       0.00188600       0.01046200      -0.02181400
O        2.83020000       1.34728000       0.11388000      -0.01890400      -0.01608200      -0.02781600
O        2.39350000       1.27596000       2.76680000      -0.03514300       0.00194200      -0.00332300
O        1.92575000       3.96943000       2.51439000      -0.03147700      -0.00352900      -0.01745600
O       -0.40204000       0.90571000       4.50493000      -0.01334100      -0.01125100      -0.00798300
O        0.61510000       3.89837000      10.47504000      -0.02314200      -0.00876700      -0.01397300
O        1.05240000       3.96942000       7.82062000      -0.04102800       0.00460800      -0.01252700
O        1.48965000       3.89864000       5.16751000      -0.04910300      -0.01355700       0.01434900
O        3.85568000       4.33793000       6.07906000      -0.03705200      -0.13436400       0.00416800
O        3.40951000       3.52900000       8.73494000       0.00362300      -0.00188300       0.01277100
O        0.03538000       6.96136000       1.85131000      -0.01653300       0.00274100       0.00852400
O        4.28310000       8.77350000       3.42848000      -0.01886400       0.01192700      -0.01452800
O        4.71926000       4.33857000       0.77513000       0.01470600       0.01612000      -0.01316500
O        4.28940000       3.53025000       3.43448000       0.00156100       0.02221500       0.01136300
O        0.03480000       1.71633000       1.85166000      -0.02213300       0.01258000      -0.00723200
O       -0.83144000       1.71314000       7.15765000       0.13527600      -0.04136000       0.02637600
O        4.71929000       9.58419000       0.77474000       0.00510600       0.01083700      -0.00954500
O       -0.39401000       6.15744000       4.51141000       0.08239400       0.05251600       0.09280700
O        1.92501000       9.21507000       2.51337000      -0.00493600       0.01199700      -0.02055300
O        2.39425000       6.51975000       2.76726000      -0.03886100       0.02877100      -0.03423300
O        2.82984000       6.59219000       0.11315000      -0.02249600       0.00352400      -0.00753600
O        1.48854000       9.14358000       5.16735000      -0.01313100      -0.01215900       0.00729300
O        1.95721000       1.34764000       5.42047000      -0.03961100      -0.01730300      -0.00253500
O        1.52090000       1.27552000       8.07409000       0.00816900      -0.00995200       0.00976600
Zr       0.37350000       0.23031000       6.41552000       0.08382400      -0.07194800      -0.02427300
Zr       2.19446000       5.01715000       9.48057000       0.03308000      -0.04675700       0.00205900
Zr       7.38673000      10.26347000       9.45302000      -0.04373200      -0.00839200       0.00467300
Zr       2.62810000       2.84746000       6.82828000       0.13671500       0.11932800      -0.05006500
Zr       7.82492000       8.09652000       6.80245000      -0.09413900      -0.09855800      -0.07760500
Zr       5.12943000       7.64034000       9.04202000       0.00452500       0.00256800       0.01060900
Zr       0.80881000       2.39421000       3.76092000       0.09289300       0.01107500       0.01439600
Zr       3.50507000       2.84958000       1.51740000       0.07783500       0.06892400       0.13049900
Zr       3.06273000       5.01899000       4.17131000       0.23219900      -0.08325900       0.04877000
Zr       5.56037000       5.48460000       6.40061000      -0.01107100      -0.03552800      -0.07446000
Zr       6.00462000       7.63983000       3.72961000      -0.05595400      -0.15383600       0.09823000
Zr      -0.06175000       7.63966000       9.06774000       0.04079000       0.00055600       0.01270200
Zr       8.26326000      10.26086000       4.14365000      -0.03175300      -0.01829000       0.02757700
Zr       2.19474000      10.26204000       9.47996000       0.01966900      -0.00864300       0.01181000
Zr       0.36996000       5.47638000       6.41012000      -0.09330800      -0.05577800      -0.01442900
Zr       6.43970000       0.22757000       1.08023000      -0.03396200      -0.00053600      -0.02000100
Zr       8.26773000       5.01189000       4.13641000      -0.24507100      -0.09155800       0.00950800
Zr       8.69908000       2.85004000       1.49555000      -0.08503100       0.02833500       0.02906900
Zr       6.00917000       2.37828000       3.72544000       0.01406700       0.11272300       0.07303400
Zr       0.80815000       7.63648000       3.76207000       0.08452400       0.02641900       0.01711300
Zr       3.50498000       8.09619000       1.51923000       0.00732800       0.00507400       0.04199600
Zr       3.06766000      10.26180000       4.17317000       0.06436800       0.01297600      -0.01092800
Zr       1.24703000       5.47414000       1.10722000       0.06726400      -0.02271300       0.02124900
Zr       5.56250000       0.22698000       6.38999000      -0.03581500       0.09030100      -0.06351500
Zr       7.39176000       5.01605000       9.45388000      -0.06489700       0.00299200      -0.08185500
Zr       7.83481000       2.84298000       6.80452000      -0.17465400       0.06007900      -0.14148800
Zr       5.12895000       2.39042000       9.04197000      -0.02697400       0.04372100      -0.07831200
Zr       2.62969000       8.09678000       6.82653000       0.00625500      -0.00492100      -0.02079100
Zr      -0.06501000       2.39451000       9.06567000       0.06316800       0.03998400       0.06652800
Zr       6.43935000       5.47682000       1.08009000      -0.03560400      -0.05486500       0.06262200
Zr       8.69650000       8.09445000       1.49390000      -0.04454000      -0.01853200      -0.03006500
Zr       1.24784000       0.22813000       1.10669000       0.04561000      -0.03173300       0.02502600
95
Lattice="10.381444 0.0 -0.053824 0.0 10.490337 0.0 -1.746774 0.0 10.614441" Properties=species:S:1:pos:R:3:forces:R:3 energy=-910.02396865 stress="0.06253 -0.51883 0.06166 -0.51883 -0.58391 0.76821 0.06166 0.76821 -1.57793" pbc="T T T"
O        0.61450000       9.14323000      10.47440000      -0.00921700       0.00132300      -0.01303700
O        8.60057000       3.53423000       8.71423000       0.08770600       0.00198400       0.10419900
O        4.35285000       1.71654000       7.13179000      -0.02417500      -0.02814400       0.02935500
O        8.01989000       1.34725000       0.08639000       0.01834300      -0.00276100       0.02947600
O        7.58145000       1.27603000       2.74065000       0.09689700      -0.10239100      -0.06787700
O        7.10727000       3.96892000       2.51131000       0.00550100       0.04282900       0.13337900
O        4.79017000       0.90752000       4.48016000      -0.10154300      -0.16351200       0.05043300
O        9.90943000       4.33854000       0.74744000      -0.00532300      -0.00584300       0.03073700
O        9.47233000       3.52730000       3.40088000       0.11866000      -0.09948400      -0.06073200
O        5.22617000       1.71927000       1.82349000       0.02684900      -0.05759300      -0.14037900
O        7.14233000       6.57549000       5.39177000       0.05043600      -0.05481500       0.02129900
O        1.96053000       6.59100000       5.42036000       0.03533800       0.00357000       0.03429700
O        1.51994000       6.52046000       8.07399000      -0.03009200       0.01502800      -0.02455300
O        1.05125000       9.21448000       7.82125000      -0.02302300       0.01069100       0.00794000
O       -1.27567000       6.15171000       9.81303000       0.00610500       0.02126900       0.00903200
O        3.84665000       9.58440000       6.08212000      -0.02213600      -0.01511600       0.02711400
O        9.01643000       4.33314000       6.05251000       0.03590400       0.09829600      -0.03315700
O        3.91610000       0.90705000       9.78580000      -0.00981000      -0.02062800       0.00388400
O        6.24030000       3.97140000       7.76572000       0.07019000      -0.06526500      -0.18722900
O        6.70703000       1.27326000       8.04860000      -0.00566100      -0.07698900       0.06862800
O        6.70976000       6.52069000       8.04641000       0.02700500       0.05802900       0.09814000
O        6.24154000       9.21442000       7.79314000       0.01441500      -0.01847600       0.01884500
O        3.91569000       6.15134000       9.78605000       0.00896300       0.01510900       0.00239200
O        9.03477000       9.58382000       6.05458000      -0.00261900       0.04791200      -0.01245800
O        8.59951000       8.77378000       8.70800000       0.00880100       0.00325600      -0.00147100
O        4.35296000       6.96314000       7.13189000      -0.10910200       0.18536700       0.08884200
O        6.67824000       9.14290000       5.14053000       0.05894400       0.03208600       0.00634200
O        3.40940000       8.77379000       8.73555000      -0.01668600       0.01656500       0.00744500
O        8.01994000       6.59191000       0.08579000       0.01710800       0.01423500       0.00575300
O        7.11449000       9.21515000       2.48706000       0.02110600       0.03060300      -0.01399200
O        4.79262000       6.14693000       4.48113000       0.01059200       0.03439000      -0.05634200
O        9.90994000       9.58426000       0.74770000      -0.00450900      -0.00023700       0.00919300
O        9.47185000       8.77540000       3.40160000      -0.01376800       0.01127300      -0.00059100
O        5.22520000       6.96133000       1.82526000      -0.03129700       0.01487600      -0.04384200
O        5.80445000       3.89807000      10.44715000       0.02785200      -0.00406000       0.00556600
O        7.13671000       1.38064000       5.38969000      -0.12380900       0.23630600      -0.04698000
O        7.57956000       6.52462000       2.73768000       0.02592600       0.06746600      -0.10098800
O       -0.83920000       6.96175000       7.15963000       0.00084900      -0.00316200       0.01575700
O        5.80468000       9.14319000      10.44736000       0.01113400       0.00892600       0.01061700
O       -1.27513000       0.90574000       9.81360000       0.00206300       0.01207100      -0.02413500
O        2.83024000       1.34729000       0.11392000      -0.02083000      -0.01729700      -0.03038800
O        2.39354000       1.27599000       2.76680000      -0.03825300       0.00141800      -0.00349600
O        1.92584000       3.96941000       2.51445000      -0.03565600      -0.00328300      -0.01991400
O       -0.40206000       0.90567000       4.50487000      -0.01376600      -0.01095100      -0.00721500
O        0.61515000       3.89839000      10.47509000      -0.02575100      -0.00999400      -0.01553100
O        1.05249000       3.96939000       7.82061000      -0.04586200       0.00533500      -0.01312000
O        1.48978000       3.89868000       5.16754000      -0.05521900      -0.01557500       0.01519300
O        3.85635000       4.33787000       6.07888000      -0.05373000      -0.14211600       0.00856200
O        3.40954000       3.52901000       8.73491000       0.00318400      -0.00197900       0.01422100
O        0.03541000       6.96136000       1.85126000      -0.01823300       0.00292200       0.01037400
O        4.28315000       8.77346000       3.42851000      -0.02120200       0.01368300      -0.01599800
O        4.71927000       4.33855000       0.77517000       0.01535100       0.01761300      -0.01444900
O        4.28987000       3.53033000       3.43491000      -0.00777500       0.02186300       0.00291100
O        0.03479000       1.71634000       1.85162000      -0.02328900       0.01322300      -0.00695400
O       -0.83097000       1.71293000       7.15753000       0.13426800      -0.03940600       0.03071200
O        4.71931000       9.58421000       0.77476000       0.00517400       0.01126600      -0.01051200
O       -0.39349000       6.15784000       4.51179000       0.07594300       0.04758300       0.09120100
O        1.92505000       9.21508000       2.51337000      -0.00582600       0.01238000      -0.02193000
O        2.39434000       6.51969000       2.76728000      -0.04334200       0.03210900      -0.03733000
O        2.82986000       6.59218000       0.11314000      -0.02431400       0.00392900      -0.00794800
O        1.48859000       9.14361000       5.16737000      -0.01495900      -0.01375100       0.00768900
O        1.95728000       1.34768000       5.42047000      -0.04362800      -0.01918400      -0.00283100
O        1.52100000       1.27553000       8.07409000       0.00670100      -0.01068700       0.01036700
Zr       0.37340000       0.23045000       6.41561000       0.09160900      -0.07984900      -0.02786900
Zr       2.19438000       5.01717000       9.48057000       0.03690700      -0.05012600       0.00187200
Zr       7.38676000      10.26356000       9.45298000      -0.04711000      -0.01121600       0.00575200
Zr       2.62782000       2.84724000       6.82838000       0.15148400       0.13143200      -0.05533600
Zr       7.82504000       8.09656000       6.80262000      -0.10292600      -0.10565200      -0.08625400
Zr       5.12946000       7.64040000       9.04209000       0.00417000       0.00172800       0.01003400
Zr       0.80861000       2.39420000       3.76094000       0.10303400       0.01198100       0.01507800
Zr       3.50503000       2.84950000       1.51725000       0.08378300       0.07529700       0.14213400
Zr       3.06231000       5.01913000       4.17118000       0.25593400      -0.09162000       0.05448700
Zr       5.56002000       5.48535000       6.40149000      -0.00424100      -0.05314500      -0.09802000
Zr       6.00477000       7.63985000       3.72933000      -0.06261200      -0.16418900       0.11035400
Zr      -0.06175000       7.63967000       9.06773000       0.04355100       0.00037000       0.01375000
Zr       8.26350000      10.26078000       4.14347000      -0.03852700      -0.01811600       0.03290500
Zr       2.19468000      10.26203000       9.47993000       0.02231300      -0.00915000       0.01335100
Zr       0.36962000       5.47659000       6.40984000      -0.09228600      -0.06342200      -0.00949900
Zr       6.43974000       0.22752000       1.08023000      -0.03711600       0.00027000      -0.02142200
Zr       8.26827000       5.01156000       4.13574000      -0.27247800      -0.09020400       0.02393300
Zr       8.69926000       2.84999000       1.49574000      -0.09410100       0.03104800       0.02676400
Zr       6.00963000       2.37721000       3.72488000       0.00488500       0.14269600       0.08919000
Zr       0.80791000       7.63627000       3.76216000       0.09513700       0.03274900       0.01617500
Zr       3.50494000       8.09620000       1.51920000       0.00882000       0.00505100       0.04530900
Zr       3.06757000      10.26178000       4.17317000       0.07035500       0.01421900      -0.01157800
Zr       1.24694000       5.47419000       1.10722000       0.07363200      -0.02533800       0.02247000
Zr       5.56229000       0.22690000       6.39016000      -0.03389000       0.09789300      -0.07137100
Zr       7.39212000       5.01598000       9.45390000      -0.07660000       0.00471000      -0.08739000