95
Lattice="10.381444 0.0 -0.053824 0.0 10.490337 0.0 -1.746774 0.0 10.614441" Properties=species:S:1:pos:R:3:forces:R:3 energy=-909.83665251 stress="-2.23295 -0.11518 0.36806 -0.11518 -1.39062 0.67553 0.36806 0.67553 -2.68307" pbc="T T T"
O        0.61434000       9.14320000      10.47430000       0.01311500      -0.00950000       0.02371600
O        4.35231000       1.71619000       7.13248000       0.00022300      -0.01342600      -0.01410400
O        6.67845000       3.89803000       5.14017000       0.04273500      -0.06043500      -0.02174000
O        8.02033000       1.34713000       0.08631000       0.00106100      -0.00748000       0.00160700
O        7.58363000       1.27545000       2.73992000      -0.00704500       0.00193100       0.00953700
O        7.11515000       3.96972000       2.48656000       0.03777700      -0.03834200      -0.02719000
O        4.78901000       0.90639000       4.47887000      -0.02941300      -0.02633700      -0.02744700
O        9.90977000       4.33878000       0.74762000       0.01706300       0.00919800       0.01421300
O        9.47308000       3.52898000       3.40123000      -0.00370800       0.00267800       0.00497400
O        5.22570000       1.71619000       1.82526000      -0.01856400       0.01304300       0.01526500
O        7.14694000       6.59230000       5.39353000      -0.62751600       0.07501800      -0.30712800
O        1.95622000       6.59230000       5.42045000       0.07343500      -0.05070900      -0.08055500
O        1.51952000       6.52062000       8.07406000       0.00070300       0.00316200      -0.00115700
O        1.05104000       9.21489000       7.82069000       0.00382900      -0.00393100       0.00045300
O       -1.27510000       6.15156000       9.81300000       0.02882900       0.01167600       0.00685100
O        3.84566000       9.58394000       6.08175000       0.00036300       0.03255700      -0.01281500
O        8.59969000       3.52898000       8.70845000       0.03223000      -0.00234700       0.00976000
O        9.03638000       4.33878000       6.05484000       0.03270800       0.03667500      -0.01084500
O        3.91562000       0.90639000       9.78609000      -0.01749900      -0.02445800      -0.00149000
O        6.24176000       3.96972000       7.79378000       0.04400300      -0.17073400       0.04305700
O        6.71025000       6.52062000       8.04714000       0.09626100       0.11559400       0.06913600
O        6.24176000       9.21489000       7.79378000      -0.00120000      -0.00329300      -0.01055400
O        3.91562000       6.15156000       9.78609000      -0.01134700       0.01667800       0.01741700
O        9.03638000       9.58394000       6.05484000      -0.00222300      -0.00729100      -0.00009500
O        8.59969000       8.77414000       8.70845000       0.01408200      -0.00026500      -0.00663200
O        4.35231000       6.96136000       7.13248000       0.03251000      -0.06252100      -0.25368000
O        6.67845000       9.14320000       5.14017000      -0.04825000      -0.07993000      -0.07432500
O        3.40897000       8.77414000       8.73536000      -0.00334200      -0.00449600       0.00362100
O        8.02033000       6.59230000       0.08631000      -0.01994500       0.00583400       0.03360500
O        7.11515000       9.21489000       2.48656000       0.05478200       0.04579500      -0.06074600
O        9.90977000       9.58394000       0.74762000       0.01811600      -0.00747800       0.00014200
O        9.47308000       8.77414000       3.40123000       0.01134900      -0.01286000       0.00637000
O        5.22570000       6.96136000       1.82526000      -0.06443000       0.01835900       0.38779800
O        5.80506000       3.89803000      10.44739000      -0.01674900       0.01262300       0.02463800
O        7.14694000       1.34713000       5.39353000      -0.00947700      -0.02337100      -0.01690700
O        6.71025000       1.27545000       8.04714000      -0.00071000      -0.03996600      -0.00349000
O        7.58363000       6.52062000       2.73992000      -0.10059000       0.08192700       0.05771700
O       -0.83841000       6.96136000       7.15939000      -0.00266300       0.00199100      -0.01458700
O        5.80506000       9.14320000      10.44739000      -0.01379500      -0.01773600      -0.00332900
O       -1.27510000       0.90639000       9.81300000       0.00492200      -0.00669300       0.00695300
O        2.39291000       1.27545000       2.76684000       0.01807300      -0.01865200       0.00251200
O        1.92442000       3.96972000       2.51347000      -0.00906000      -0.02613100      -0.08916400
O       -0.40171000       0.90639000       4.50578000      -0.01117900      -0.01161800      -0.00077100
O        1.95622000       1.34713000       5.42045000       0.01628400      -0.03234200      -0.02578800
O        0.61434000       3.89803000      10.47430000       0.00894100       0.00946700       0.00350000
O        1.05104000       3.96972000       7.82069000       0.00056700       0.01729300       0.00625900
O        1.48773000       3.89803000       5.16708000       0.08394100       0.01835200       0.01842000
O        3.84566000       4.33878000       6.08175000       0.21489500       0.49312700      -0.40062200
O        3.40897000       3.52898000       8.73536000      -0.01494900       0.00944800       0.00094600
O        0.03498000       6.96136000       1.85217000       0.03523600      -0.00072000       0.01511200
O        4.28236000       8.77414000       3.42814000       0.19625100      -0.35745900       0.14018000
O        4.71905000       4.33878000       0.77453000       0.00063400       0.01186000       0.01146000
O        4.28236000       3.52898000       3.42814000      -0.01715000       0.26765000       0.09904700
O        0.03498000       1.71619000       1.85217000       0.01350800      -0.01031200       0.00135600
O       -0.83841000       1.71619000       7.15939000       0.01531300      -0.01536600      -0.00074500
O        4.71905000       9.58394000       0.77453000      -0.02517300      -0.06337600       0.05300100
O       -0.40171000       6.15156000       4.50578000      -0.01017800       0.02409900       0.00471700
O        1.92442000       9.21489000       2.51347000       0.04336000      -0.02834500       0.00351800
O        2.39291000       6.52062000       2.76684000       0.19973300       0.01759300       0.12173200
O        2.82960000       6.59230000       0.11323000       0.02345500       0.02091100       0.02649200
O        1.48773000       9.14320000       5.16708000       0.00964500      -0.00380700      -0.02712900
O        2.82960000       1.34713000       0.11323000       0.00418200      -0.00598700       0.00587200
O        1.51952000       1.27545000       8.07406000       0.00974400      -0.00226200      -0.00166200
Zr       0.37497000       0.22822000       6.41431000      -0.00786200       0.02729300       0.00727400
Zr       2.19559000       5.01695000       9.48044000      -0.00025100      -0.02889300      -0.01619100
Zr       7.38631000      10.26212000       9.45353000      -0.00858200       0.01468800      -0.00705000
Zr       6.00238000       7.63954000       3.73379000       0.13981300      -0.06345600       0.09866600
Zr       7.82301000       8.09597000       6.79992000      -0.02844600       0.01557300       0.10478300
Zr       5.12900000       7.63954000       9.04101000       0.09215300      -0.02291700      -0.02015700
Zr       0.81166000       2.39437000       3.76070000       0.01093200       0.02715000      -0.01446500
Zr       3.50567000       2.85080000       1.51961000      -0.03572100       0.00291300      -0.04186300
Zr       3.06898000       5.01695000       4.17322000      -0.16905200      -0.13914800       0.15426900
Zr       5.56569000       5.47339000       6.38740000      -0.00702400      -0.11871300       0.22077600
Zr       8.69640000       8.09597000       1.49270000      -0.00484700       0.06163200      -0.00382200
Zr      -0.06173000       7.63954000       9.06792000      -0.02207400      -0.00572600      -0.00715800
Zr       6.43908000       5.47339000       1.08018000       0.05659400      -0.16350000       0.03093700
Zr       2.19559000      10.26212000       9.48044000       0.00544800       0.02511700      -0.02786500
Zr       0.37497000       5.47339000       6.41431000      -0.02021700      -0.03861200       0.00667400
Zr       6.43908000       0.22822000       1.08018000       0.04936200       0.03225500      -0.01880200
Zr       8.25970000       5.01695000       4.14631000      -0.11394200      -0.09457700      -0.02722100
Zr       8.69640000       2.85080000       1.49270000      -0.01629900       0.00904500      -0.00562700
Zr       6.00238000       2.39437000       3.73379000       0.10589100       0.01583200       0.03551200
Zr       0.81166000       7.63954000       3.76070000      -0.05843200       0.00382100       0.02036300
Zr       3.50567000       8.09597000       1.51961000      -0.13793000       0.05938600      -0.12929100
Zr       3.06898000      10.26212000       4.17322000      -0.08479100       0.12728000       0.08899900
Zr       1.24835000       5.47339000       1.10709000      -0.02661600      -0.06349800      -0.02111700
Zr       5.56569000       0.22822000       6.38740000       0.00225100       0.03557200       0.03636000
Zr       7.38631000       5.01695000       9.45353000      -0.03970200       0.00129800      -0.07480900
Zr       7.82301000       2.85080000       6.79992000      -0.07988400       0.04890000       0.02934300
Zr       5.12900000       2.39437000       9.04101000       0.04556300       0.04762600      -0.02528900
Zr       2.63229000       8.09597000       6.82683000       0.05962500      -0.02889300      -0.07883100
Zr      -0.06173000       2.39437000       9.06792000      -0.02083000       0.01260100      -0.01236200
Zr       2.63229000       2.85080000       6.82683000      -0.03749000       0.02125200      -0.01993300
Zr       8.25970000      10.26212000       4.14631000       0.01341600       0.02656700      -0.01642700
Zr       1.24835000       0.22822000       1.10709000      -0.02876000       0.02757100      -0.02193100
95
Lattice="10.381444 0.0 -0.053824 0.0 10.490337 0.0 -1.746774 0.0 10.614441" Properties=species:S:1:pos:R:3:forces:R:3 energy=-909.88748645 stress="-2.46737 -0.05855 0.23583 -0.05855 -1.21168 0.67756 0.23583 0.67756 -2.6179" pbc="T T T"
O        0.61498000       9.14274000      10.47545000      -0.03156600       0.02212700      -0.03808400
O        4.35233000       1.71554000       7.13180000      -0.05627600       0.08803700      -0.00979300
O        6.68051000       3.89512000       5.13912000       0.07705900      -0.08949200       0.01650600
O        8.02038000       1.34677000       0.08639000       0.01971400       0.02345900      -0.02113000
O        7.58329000       1.27554000       2.74038000       0.01258700       0.04581100      -0.00348400
O        7.11697000       3.96787000       2.48525000       0.04170000      -0.06005700       0.00290600
O        4.78759000       0.90512000       4.47754000       0.02466100       0.04472700      -0.00731700
O        9.91059000       4.33922000       0.74830000      -0.05208400      -0.02538700      -0.02536300
O        9.47290000       3.52911000       3.40147000      -0.00390500      -0.00782900      -0.00045400
O        5.22481000       1.71682000       1.82599000      -0.00044400       0.03378800       0.02850400
O        7.11667000       6.59592000       5.37872000      -0.33208600       0.03979800      -0.05109300
O        1.95976000       6.58986000       5.41656000      -0.03351900      -0.01267200       0.03537800
O        1.51956000       6.52077000       8.07400000      -0.00632900      -0.02028200      -0.00774600
O        1.05122000       9.21470000       7.82072000      -0.00263500       0.01486400      -0.01561200
O       -1.27371000       6.15212000       9.81333000      -0.03842400      -0.03616400      -0.02223700
O        3.84568000       9.58552000       6.08113000       0.00470100       0.06049400       0.03444100
O        8.60124000       3.52886000       8.70892000      -0.00124500       0.02521200      -0.00067300
O        9.03796000       4.34055000       6.05431000      -0.04203000      -0.01055500       0.00685500
O        3.91478000       0.90521000       9.78602000       0.03804600       0.03975700      -0.03465700
O        6.24388000       3.96148000       7.79586000       0.03287600      -0.12538000       0.08053600
O        6.71489000       6.52620000       8.05048000       0.11289200       0.02791300       0.07691000
O        6.24170000       9.21473000       7.79327000       0.00197100       0.00442800       0.01314100
O        3.91507000       6.15236000       9.78693000       0.01483100       0.00652900      -0.00586600
O        9.03628000       9.58359000       6.05483000      -0.00919900      -0.00666600       0.02028100
O        8.60037000       8.77413000       8.70813000      -0.02024400       0.02911700      -0.00034500
O        4.35388000       6.95834000       7.12024000       0.03700900       0.02858300      -0.06719800
O        6.67612000       9.13935000       5.13659000       0.06121700       0.08679300       0.05489000
O        3.40881000       8.77393000       8.73553000       0.04179700      -0.04056600      -0.02287000
O        8.01936000       6.59258000       0.08793000      -0.00126900      -0.02777600      -0.00124400
O        7.11779000       9.21710000       2.48363000       0.09825300       0.09049500      -0.06839700
O        9.91064000       9.58358000       0.74762000       0.01196500       0.01824800      -0.03048000
O        9.47362000       8.77352000       3.40153000      -0.01956500       0.02679500       0.00276500
O        5.22259000       6.96225000       1.84397000       0.02049300      -0.18783700       0.09864000
O        5.80426000       3.89864000      10.44858000      -0.00107700       0.00054400      -0.00852000
O        7.14648000       1.34601000       5.39272000      -0.00450100       0.00829000       0.01485400
O        6.71021000       1.27352000       8.04698000      -0.00075600      -0.01177900      -0.00157900
O        7.57878000       6.52457000       2.74271000       0.06980600      -0.07161500      -0.00520900
O       -0.83854000       6.96146000       7.15869000      -0.03416900      -0.00672300      -0.01595200
O        5.80440000       9.14235000      10.44723000       0.01609100      -0.00176800      -0.04264300
O       -1.27486000       0.90607000       9.81334000      -0.00758100       0.00851000      -0.01326600
O        2.39378000       1.27455000       2.76696000      -0.01625600       0.02548000       0.00059400
O        1.92399000       3.96846000       2.50917000      -0.07360900      -0.08255700      -0.06230700
O       -0.40225000       0.90583000       4.50574000       0.03261000       0.03472600      -0.00810600
O        1.95700000       1.34557000       5.41920000       0.02419700       0.02553900       0.00529100
O        0.61477000       3.89849000      10.47447000       0.00621000      -0.01101200      -0.03426500
O        1.05106000       3.97055000       7.82100000       0.02582000      -0.02635600      -0.01437700
O        1.49178000       3.89892000       5.16797000      -0.00706400      -0.09241600       0.09953700
O        3.85603000       4.36257000       6.06242000      -0.07942200       0.02195500      -0.04302400
O        3.40825000       3.52943000       8.73541000       0.02629000      -0.02112400      -0.08250400
O        0.03668000       6.96133000       1.85290000       0.02414000      -0.00514100      -0.00280600
O        4.29182000       8.75690000       3.43490000      -0.15489800      -0.00277800       0.17994000
O        4.71908000       4.33935000       0.77508000      -0.00399400      -0.02170000      -0.01951400
O        4.28153000       3.54189000       3.43292000       0.12165500       0.03169200      -0.01697400
O        0.03563000       1.71569000       1.85223000      -0.02143000       0.02218100       0.01300600
O       -0.83767000       1.71545000       7.15935000      -0.02970900       0.03209400       0.00832900
O        4.71783000       9.58089000       0.77709000       0.04328100       0.04549300      -0.01419300
O       -0.40220000       6.15272000       4.50601000      -0.08488600      -0.04672700       0.02991700
O        1.92652000       9.21352000       2.51364000       0.01695700       0.04773600      -0.00609100
O        2.40255000       6.52147000       2.77271000       0.03364700       0.01077200       0.04096000
O        2.83074000       6.59331000       0.11450000      -0.01371200      -0.02435600      -0.03673600
O        1.48820000       9.14302000       5.16577000      -0.00790400       0.01818300       0.01328000
O        2.82981000       1.34685000       0.11351000      -0.01148700       0.01079900      -0.01695300
O        1.51999000       1.27534000       8.07398000       0.02843800       0.06751200      -0.04887800
Zr       0.37459000       0.22953000       6.41466000      -0.02867100      -0.06951500       0.00954500
Zr       2.19558000       5.01556000       9.47966000      -0.00413300       0.09571200       0.05259100
Zr       7.38590000      10.26283000       9.45319000      -0.00012900      -0.02258900       0.02161300
Zr       6.00913000       7.63647000       3.73855000      -0.11562700      -0.10922700       0.02870100
Zr       7.82164000       8.09672000       6.80497000      -0.04969800      -0.01091700      -0.09965000
Zr       5.13344000       7.63843000       9.04004000      -0.06441000       0.00733600       0.01195200
Zr       0.81219000       2.39568000       3.76000000       0.00014900      -0.00760100      -0.06157000
Zr       3.50395000       2.85094000       1.51759000       0.02925700       0.03939400       0.07040600
Zr       3.06082000       5.01024000       4.18066000       0.03416900       0.16295000      -0.08280200
Zr       5.56535000       5.46766000       6.39805000      -0.04667600       0.08505600      -0.09680200
Zr       8.69616000       8.09894000       1.49251000      -0.03033200      -0.00885500       0.04441600
Zr      -0.06279000       7.63926000       9.06757000       0.06382200      -0.00242100       0.00972800
Zr       6.44181000       5.46550000       1.08167000      -0.14999100       0.17615900       0.11784500
Zr       2.19586000      10.26333000       9.47910000       0.02941200      -0.06994300       0.02909200
Zr       0.37399000       5.47152000       6.41463000       0.01041900       0.09400300      -0.03794100
Zr       6.44146000       0.22977000       1.07927000      -0.08169300      -0.05719400       0.03490300
Zr       8.25421000       5.01239000       4.14499000      -0.05108600       0.09247900      -0.02211100
Zr       8.69561000       2.85124000       1.49243000       0.05020500      -0.02226600      -0.00222700
Zr       6.00749000       2.39513000       3.73550000      -0.11054200      -0.01227600      -0.01290100
Zr       0.80884000       7.63972000       3.76168000       0.09677400      -0.06067500      -0.03096000
Zr       3.49902000       8.09883000       1.51337000       0.08561000      -0.08532700       0.19039000
Zr       3.06489000      10.26826000       4.17751000       0.13949000      -0.19649000      -0.07920400
Zr       1.24707000       5.47032000       1.10607000       0.06565300       0.06275600       0.08198500
Zr       5.56580000       0.22993000       6.38915000      -0.00850500      -0.08138800      -0.08869700
Zr       7.38440000       5.01701000       9.44992000       0.05874400       0.05846800       0.06366300
Zr       7.81915000       2.85316000       6.80133000       0.04322400      -0.04111800      -0.03366700
Zr       5.13119000       2.39667000       9.03979000      -0.02524700      -0.05318400       0.03023800
Zr       2.63516000       8.09458000       6.82303000       0.04932600      -0.03510800      -0.08045200
Zr      -0.06273000       2.39498000       9.06732000       0.00459800      -0.01886000       0.00927400
Zr       2.63048000       2.85183000       6.82587000       0.10025500       0.12098900      -0.05060800
Zr       8.26035000      10.26340000       4.14552000      -0.04376000      -0.07945500      -0.00296300
Zr       1.24697000       0.22955000       1.10603000       0.03175000      -0.04266000       0.02669400
95
Lattice="10.381444 0.0 -0.053824 0.0 10.490337 0.0 -1.746774 0.0 10.614441" Properties=species:S:1:pos:R:3:forces:R:3 energy=-909.88750067 stress="-2.46394 -0.06061 0.23472 -0.06061 -1.20322 0.67758 0.23472 0.67758 -2.60951" pbc="T T T"
O        0.61499000       9.14274000      10.47547000      -0.03252100       0.02280100      -0.03941000
O        4.35233000       1.71553000       7.13178000      -0.05739800       0.09005600      -0.00967000
O        6.68055000       3.89506000       5.13910000       0.07753500      -0.08971800       0.01734300
O        8.02038000       1.34677000       0.08639000       0.02011900       0.02410500      -0.02161300
O        7.58329000       1.27555000       2.74039000       0.01304300       0.04664200      -0.00383600
O        7.11700000       3.96783000       2.48522000       0.04160900      -0.06031300       0.00363000
O        4.78756000       0.90510000       4.47752000       0.02593500       0.04620700      -0.00690400
O        9.91061000       4.33923000       0.74832000      -0.05356200      -0.02605400      -0.02622600
O        9.47289000       3.52911000       3.40147000      -0.00384900      -0.00802400      -0.00064500
O        5.22479000       1.71683000       1.82601000      -0.00004300       0.03409700       0.02873700
O        7.11609000       6.59599000       5.37843000      -0.32451300       0.03830200      -0.04445700
O        1.95983000       6.58981000       5.41649000      -0.03587200      -0.01165600       0.03793700
O        1.51956000       6.52077000       8.07400000      -0.00639000      -0.02070400      -0.00790200
O        1.05122000       9.21469000       7.82072000      -0.00277100       0.01520900      -0.01597900
O       -1.27368000       6.15213000       9.81334000      -0.03990800      -0.03714500      -0.02281800
O        3.84568000       9.58555000       6.08112000       0.00506700       0.06111500       0.03504500
O        8.60127000       3.52886000       8.70893000      -0.00196400       0.02577200      -0.00094900
O        9.03799000       4.34058000       6.05430000      -0.04364500      -0.01164300       0.00717300
O        3.91476000       0.90519000       9.78601000       0.03926400       0.04113800      -0.03532300
O        6.24392000       3.96132000       7.79590000       0.03256600      -0.12393600       0.08115300
O        6.71498000       6.52630000       8.05054000       0.11287100       0.02581700       0.07679900
O        6.24170000       9.21472000       7.79326000       0.00197100       0.00460100       0.01360700
O        3.91506000       6.15238000       9.78694000       0.01533000       0.00635500      -0.00634400
O        9.03627000       9.58359000       6.05483000      -0.00925400      -0.00665900       0.02058800
O        8.60038000       8.77413000       8.70812000      -0.02093500       0.02971800      -0.00018400
O        4.35391000       6.95829000       7.12001000       0.03691600       0.03077500      -0.06259900
O        6.67608000       9.13927000       5.13652000       0.06353200       0.09047300       0.05777700
O        3.40880000       8.77392000       8.73554000       0.04271900      -0.04129800      -0.02339700
O        8.01935000       6.59259000       0.08797000      -0.00046900      -0.02818800      -0.00177600
O        7.11784000       9.21714000       2.48357000       0.09925900       0.09165600      -0.06833400
O        9.91066000       9.58358000       0.74762000       0.01186000       0.01877600      -0.03110500
O        9.47364000       8.77351000       3.40154000      -0.02025000       0.02763200       0.00265600
O        5.22253000       6.96226000       1.84432000       0.02258300      -0.19225100       0.09148500
O        5.80424000       3.89866000      10.44860000      -0.00065700       0.00026600      -0.00926700
O        7.14647000       1.34598000       5.39270000      -0.00432500       0.00899100       0.01548700
O        6.71021000       1.27349000       8.04697000      -0.00073500      -0.01107800      -0.00160300
O        7.57869000       6.52465000       2.74276000       0.07327200      -0.07476900      -0.00662200
O       -0.83854000       6.96146000       7.15867000      -0.03471500      -0.00689100      -0.01601400
O        5.80439000       9.14233000      10.44723000       0.01667800      -0.00140000      -0.04338200
O       -1.27486000       0.90606000       9.81334000      -0.00778800       0.00881400      -0.01371600
O        2.39380000       1.27453000       2.76696000      -0.01700100       0.02616500       0.00086900
O        1.92398000       3.96843000       2.50909000      -0.07481600      -0.08352200      -0.06141600
O       -0.40226000       0.90582000       4.50574000       0.03357700       0.03563500      -0.00828200
O        1.95702000       1.34554000       5.41918000       0.02421800       0.02641700       0.00607700
O        0.61478000       3.89850000      10.47448000       0.00612500      -0.01145700      -0.03501700
O        1.05106000       3.97057000       7.82100000       0.02633200      -0.02728800      -0.01480500
O        1.49186000       3.89894000       5.16799000      -0.00898400      -0.09448700       0.10120800
O        3.85623000       4.36302000       6.06205000      -0.08595100       0.01082700      -0.03427000
O        3.40823000       3.52944000       8.73541000       0.02722500      -0.02180100      -0.08414500
O        0.03671000       6.96133000       1.85291000       0.02381600      -0.00523500      -0.00324900
O        4.29200000       8.75657000       3.43503000      -0.16272700       0.00514700       0.18020600
O        4.71908000       4.33936000       0.77509000      -0.00411200      -0.02230300      -0.02009400
O        4.28151000       3.54214000       3.43301000       0.12494000       0.02615700      -0.01963100
O        0.03564000       1.71569000       1.85224000      -0.02219100       0.02290400       0.01327600
O       -0.83765000       1.71544000       7.15935000      -0.03068100       0.03313400       0.00849200
O        4.71781000       9.58083000       0.77713000       0.04486600       0.04792500      -0.01570600
O       -0.40221000       6.15275000       4.50601000      -0.08639400      -0.04823800       0.03034900
O        1.92656000       9.21349000       2.51365000       0.01622600       0.04936700      -0.00625500
O        2.40273000       6.52148000       2.77282000       0.02989300       0.01027300       0.03899900
O        2.83076000       6.59333000       0.11453000      -0.01445900      -0.02540200      -0.03813400
O        1.48820000       9.14302000       5.16575000      -0.00820000       0.01852400       0.01374800
O        2.82981000       1.34684000       0.11351000      -0.01175300       0.01112200      -0.01744300
O        1.52000000       1.27534000       8.07397000       0.02878800       0.06891000      -0.04984400
Zr       0.37458000       0.22956000       6.41467000      -0.02900700      -0.07132300       0.00941900
Zr       2.19558000       5.01553000       9.47964000      -0.00398200       0.09816900       0.05389900
Zr       7.38589000      10.26284000       9.45318000       0.00004300      -0.02342300       0.02225300
Zr       6.00926000       7.63642000       3.73864000      -0.12030900      -0.10998500       0.02735700
Zr       7.82161000       8.09673000       6.80507000      -0.05005200      -0.01144000      -0.10341200
Zr       5.13353000       7.63841000       9.04002000      -0.06735900       0.00776100       0.01255100
Zr       0.81220000       2.39570000       3.75999000      -0.00004000      -0.00822400      -0.06244300
Zr       3.50392000       2.85094000       1.51755000       0.03057600       0.04000600       0.07258400
Zr       3.06067000       5.01011000       4.18080000       0.03785600       0.16878500      -0.08765200
Zr       5.56534000       5.46755000       6.39825000      -0.04709200       0.08884100      -0.10252100
Zr       8.69616000       8.09900000       1.49251000      -0.03068100      -0.01014900       0.04531100
Zr      -0.06281000       7.63925000       9.06757000       0.06540300      -0.00233800       0.01000200
Zr       6.44186000       5.46535000       1.08170000      -0.15386700       0.18249000       0.11922700
Zr       2.19586000      10.26335000       9.47907000       0.02998800      -0.07180700       0.03016400
Zr       0.37397000       5.47149000       6.41464000       0.01089200       0.09645900      -0.03888800
Zr       6.44150000       0.22980000       1.07925000      -0.08415500      -0.05888200       0.03589400
Zr       8.25410000       5.01230000       4.14497000      -0.04989900       0.09597000      -0.02205800
Zr       8.69559000       2.85125000       1.49242000       0.05147800      -0.02282300      -0.00213400
Zr       6.00759000       2.39515000       3.73553000      -0.11457600      -0.01288800      -0.01389000
Zr       0.80879000       7.63972000       3.76170000       0.09954500      -0.06178300      -0.03195600
Zr       3.49889000       8.09889000       1.51325000       0.08951900      -0.08784200       0.19611800
Zr       3.06481000      10.26838000       4.17760000       0.14357600      -0.20225700      -0.08228300
Zr       1.24705000       5.47026000       1.10605000       0.06725800       0.06530500       0.08379300
Zr       5.56580000       0.22997000       6.38919000      -0.00877600      -0.08353100      -0.09108200
Zr       7.38436000       5.01702000       9.44985000       0.06046900       0.05962200       0.06613300