95
Lattice="10.381444 0.0 -0.053824 0.0 10.490337 0.0 -1.746774 0.0 10.614441" Properties=species:S:1:pos:R:3:forces:R:3 energy=-894.43195391 stress="-0.47155 -1.3081 -1.21164 -1.3081 -2.11851 -0.15605 -1.21164 -0.15605 -4.51362" pbc="T T T"
O        0.61434000       9.14320000      10.47430000       0.03319500       0.01897100       0.04068600
O        8.59969000       3.52898000       8.70845000       0.16143700      -0.08384400       0.12909300
O        4.35231000       1.71619000       7.13248000      -0.06353100      -0.14537400      -0.00609200
O        6.67845000       3.89803000       5.14017000       0.91457500      -1.09031800      -0.81224100
O        8.02033000       1.34713000       0.08631000      -0.01214500      -0.04994000       0.01144400
O        7.58363000       1.27545000       2.73992000       0.03432900      -0.05323900      -0.07592100
O        7.11515000       3.96972000       2.48656000      -0.01614000      -0.00114400      -0.26350000
O        4.78901000       0.90639000       4.47887000      -0.15133700      -0.14583700       0.02949500
O        9.03638000       4.33878000       6.05484000       0.49248400      -0.00057800       0.00020700
O        9.90977000       4.33878000       0.74762000       0.08858400      -0.02540500       0.09055100
O        5.22570000       1.71619000       1.82526000      -0.08293100      -0.03744400      -0.16230700
O        7.14694000       6.59230000       5.39353000       0.84856200       0.64644300      -0.92192800
O        1.95622000       6.59230000       5.42045000      -0.17162500       0.04176900      -0.11939100
O        1.51952000       6.52062000       8.07406000      -0.02137900       0.01574500       0.08637900
O        1.05104000       9.21489000       7.82069000      -0.05761800       0.09748700       0.08792500
O       -1.27510000       6.15156000       9.81300000       0.14857800       0.06933200       0.03857300
O        3.84566000       9.58394000       6.08175000       0.07250900       0.08547000       0.00046100
O        9.47308000       3.52898000       3.40123000       0.26164900      -0.18174800      -0.11599200
O        3.40897000       8.77414000       8.73536000      -0.10251400       0.21042000       0.12561300
O        3.91562000       0.90639000       9.78609000      -0.13796500      -0.11964300       0.01366300
O        6.71025000       1.27545000       8.04714000      -0.02299700      -0.12415900       0.03834200
O        6.71025000       6.52062000       8.04714000       0.59060300       0.70399000       0.96411200
O        6.24176000       9.21489000       7.79378000      -0.03772900       0.21309500       0.04545900
O        3.91562000       6.15156000       9.78609000      -0.21872900      -0.00298300       0.18977000
O        9.03638000       9.58394000       6.05484000       0.13137900       0.13239600      -0.05461100
O        8.59969000       8.77414000       8.70845000       0.03308600       0.04893900       0.12071000
O        4.35231000       6.96136000       7.13248000      -0.66896500       0.78838600       0.38235500
O        6.67845000       9.14320000       5.14017000       0.00762900       0.21360800      -0.03945200
O        6.24176000       3.96972000       7.79378000       0.75628700      -1.00026200       1.01930700
O        8.02033000       6.59230000       0.08631000       0.02188600       0.00829800       0.10878300
O        7.11515000       9.21489000       2.48656000      -0.00723200       0.05133600      -0.08072800
O        4.78901000       6.15156000       4.47887000      -0.26423700       0.63099000      -0.92772000
O        9.90977000       9.58394000       0.74762000       0.04923000       0.01735500      -0.00275900
O        9.47308000       8.77414000       3.40123000       0.04422900      -0.01073900      -0.02894000
O        5.22570000       6.96136000       1.82526000      -0.14541500      -0.05420100      -0.02753700
O        5.80506000       3.89803000      10.44739000      -0.07508700      -0.02141500       0.21276000
O        7.14694000       1.34713000       5.39353000      -0.02591400      -0.26001600      -0.03309600
O        7.58363000       6.52062000       2.73992000       0.02212100       0.13013300      -0.25162500
O       -0.83841000       6.96136000       7.15939000       0.19306300       0.02138200       0.06595500
O        5.80506000       9.14320000      10.44739000       0.03319700       0.11485000       0.09624900
O       -1.27510000       0.90639000       9.81300000       0.01310500      -0.01685000       0.01155800
O        1.48773000       3.89803000       5.16708000      -0.03321100       0.04192700      -0.01016800
O        2.82960000       1.34713000       0.11323000       0.01977200      -0.01471600       0.00030100
O        2.39291000       1.27545000       2.76684000       0.01512700      -0.01166000      -0.02128400
O        1.92442000       3.96972000       2.51347000      -0.02254000      -0.04437300      -0.06523900
O        0.61434000       3.89803000      10.47430000       0.00795600       0.00363200       0.01758900
O       -0.40171000       0.90639000       4.50578000       0.04903300       0.01897100      -0.01335700
O        1.05104000       3.96972000       7.82069000      -0.04930800      -0.02204200       0.08308700
O        3.84566000       4.33878000       6.08175000      -0.94675300      -0.42429000      -0.15051600
O        0.03498000       6.96136000       1.85217000       0.03872200      -0.01488800      -0.00971800
O        4.28236000       8.77414000       3.42814000      -0.13923300       0.11083400      -0.04565900
O        1.95622000       1.34713000       5.42045000       0.00737300      -0.05639500      -0.05921000
O        4.71905000       9.58394000       0.77453000      -0.00126000      -0.05791000       0.02812900
O        4.28236000       3.52898000       3.42814000      -0.10062300      -0.06180300      -0.16425100
O        0.03498000       1.71619000       1.85217000       0.06215700      -0.04692600      -0.00870400
O        3.40897000       3.52898000       8.73536000      -0.15156300      -0.05214900       0.13332800
O       -0.40171000       6.15156000       4.50578000       0.19372000       0.14233000      -0.00970500
O        1.92442000       9.21489000       2.51347000       0.03118200      -0.00592600      -0.03059700
O        2.39291000       6.52062000       2.76684000       0.01659700       0.10239100      -0.10193000
O        2.82960000       6.59230000       0.11323000       0.03461100       0.01850800       0.03775900
O        1.48773000       9.14320000       5.16708000       0.00968200       0.06813500      -0.08537400
O       -0.83841000       1.71619000       7.15939000       0.24144100      -0.13881100       0.07966000
O        4.71905000       4.33878000       0.77453000       0.00977400       0.01044200       0.03790000
O        1.51952000       1.27545000       8.07406000      -0.02108300      -0.08198800       0.08582000
Zr       0.37497000       0.22822000       6.41431000      -0.09564100      -0.01602100      -0.01179200
Zr       2.19559000       5.01695000       9.48044000       0.06039900       0.04227400      -0.28367000
Zr       7.82301000       8.09597000       6.79992000      -0.97664300      -1.23591600      -0.30109600
Zr       2.63229000       2.85080000       6.82683000       0.46398100       0.48575400      -0.10815500
Zr       5.12900000       7.63954000       9.04101000       0.27043600      -0.86991500      -1.16615400
Zr       0.81166000       2.39437000       3.76070000      -0.10902500      -0.01855400      -0.02931200
Zr       3.50567000       2.85080000       1.51961000      -0.08260100      -0.03385000       0.05437900
Zr       3.06898000       5.01695000       4.17322000       0.97281400       0.24108900       1.02230500
Zr       7.38631000      10.26212000       9.45353000      -0.10196100       0.00042700      -0.02705100
Zr       6.00238000       7.63954000       3.73379000       0.22910200      -0.77841300       1.30084100
Zr       2.63229000       8.09597000       6.82683000       0.42827600      -0.76866200      -0.01414500
Zr       8.25970000      10.26212000       4.14631000      -0.09946700       0.01135900       0.07424200
Zr       2.19559000      10.26212000       9.48044000      -0.10977400      -0.01082800      -0.10171400
Zr       0.37497000       5.47339000       6.41431000      -0.22463500       0.02015000       0.05715800
Zr       6.43908000       0.22822000       1.08018000       0.22139300       0.01176300       0.08253400
Zr       8.25970000       5.01695000       4.14631000      -1.43378800      -0.09331500       1.05754800
Zr       8.69640000       2.85080000       1.49270000      -0.12175000       0.07466500       0.04342800
Zr       6.00238000       2.39437000       3.73379000       0.38502400       0.75084200       0.74492200
Zr       0.81166000       7.63954000       3.76070000      -0.02120700      -0.01738900       0.10436200
Zr       3.50567000       8.09597000       1.51961000      -0.23881600       0.02670700      -0.00037200
Zr       3.06898000      10.26212000       4.17322000      -0.04936400       0.06901600      -0.02654900
Zr       1.24835000       5.47339000       1.10709000      -0.06662800      -0.02714200      -0.00723800
Zr       5.56569000       0.22822000       6.38740000       0.26015000       0.00287800      -0.02310200
Zr       7.38631000       5.01695000       9.45353000      -0.84303900       0.10596300      -1.10600500
Zr       7.82301000       2.85080000       6.79992000      -1.19913000       1.32094800      -0.51680400
Zr       5.12900000       2.39437000       9.04101000       0.39111200       0.73518900      -0.36965100
Zr      -0.06173000       7.63954000       9.06792000      -0.02482600      -0.09496600      -0.12475500
Zr      -0.06173000       2.39437000       9.06792000      -0.03523300       0.03491700      -0.09666900
Zr       6.43908000       5.47339000       1.08018000       0.31179700      -0.25829500       0.00497800
Zr       8.69640000       8.09597000       1.49270000      -0.07457500      -0.03348800       0.04192700
Zr       1.24835000       0.22822000       1.10709000      -0.02618500       0.00426100       0.01213500
95
Lattice="10.381444 0.0 -0.053824 0.0 10.490337 0.0 -1.746774 0.0 10.614441" Properties=species:S:1:pos:R:3:forces:R:3 energy=-895.39035685 stress="5.53227 -0.43171 -1.00279 -0.43171 1.66022 -0.53277 -1.00279 -0.53277 -2.51277" pbc="T T T"
O        0.61594000       9.14412000      10.47627000      -0.07220300      -0.02743000       0.03723000
O        8.60748000       3.52493000       8.71468000       0.03158900       0.24062100      -0.07346200
O        4.34925000       1.70918000       7.13218000       0.05943100      -0.02331800      -0.00116700
O        6.72257000       3.84543000       5.10099000       0.53906500      -0.39173800      -0.19209200
O        8.01974000       1.34472000       0.08687000       0.04995100       0.13502800      -0.03490200
O        7.58529000       1.27288000       2.73626000       0.00298200       0.15479200       0.09682700
O        7.11437000       3.96966000       2.47385000      -0.03985400      -0.01516300       0.12019900
O        4.78171000       0.89936000       4.48029000       0.15628200       0.24031300      -0.01524100
O        9.06014000       4.33875000       6.05485000      -0.03053900      -0.07267100       0.02800100
O        9.91404000       4.33755000       0.75199000      -0.15190300      -0.07776800      -0.11956000
O        5.22170000       1.71439000       1.81743000       0.01879300       0.03309700       0.00576800
O        7.18788000       6.62349000       5.34906000       0.72347200       0.17188700      -0.55002700
O        1.94794000       6.59432000       5.41469000      -0.04686100      -0.05708400       0.02944300
O        1.51849000       6.52138000       8.07822000       0.01974200      -0.05831700      -0.03816300
O        1.04826000       9.21959000       7.82494000      -0.02760000      -0.07152900       0.00656900
O       -1.26793000       6.15490000       9.81486000      -0.16773400      -0.12542800      -0.17035500
O        3.84916000       9.58807000       6.08177000       0.06750400      -0.04667600       0.04563800
O        9.48570000       3.52021000       3.39563000      -0.26012900       0.24666800       0.12770600
O        3.40402000       8.78430000       8.74142000       0.18765900      -0.05972800       0.07255900
O        3.90896000       0.90062000       9.78675000       0.11650500       0.17640400      -0.11567500
O        6.70914000       1.26946000       8.04899000      -0.00084700      -0.00671700      -0.10744000
O        6.73874000       6.55458000       8.09366000       0.64310700       0.49992700       0.25029000
O        6.23994000       9.22517000       7.79597000       0.02181000      -0.10323200      -0.11979100
O        3.90507000       6.15142000       9.79524000      -0.01278300       0.01077100       0.02716700
O        9.04272000       9.59033000       6.05220000      -0.29477100      -0.38032000       0.06773600
O        8.60129000       8.77651000       8.71427000      -0.01695600      -0.03251700      -0.04324700
O        4.32004000       6.99939000       7.15092000      -0.04495300       0.27369300       0.16463800
O        6.67882000       9.15351000       5.13827000      -0.10654600       0.05372000       0.18761200
O        6.27824000       3.92146000       7.84296000       0.17476200      -0.44312500       0.58875400
O        8.02138000       6.59270000       0.09156000      -0.03974000      -0.20408700      -0.06623900
O        7.11480000       9.21736000       2.48267000       0.08179500       0.00271500       0.08899100
O        4.77626000       6.18200000       4.43411000      -0.19738300       0.22175800      -0.40501800
O        9.91215000       9.58478000       0.74748000       0.06631700      -0.01229300       0.06725800
O        9.47521000       8.77363000       3.39983000       0.01394100       0.07426300       0.01916200
O        5.21869000       6.95875000       1.82393000       0.06339500      -0.18017600       0.07756500
O        5.80144000       3.89700000      10.45766000      -0.07948100       0.14587400       0.07807900
O        7.14569000       1.33459000       5.39194000      -0.00784400      -0.06191600       0.12073900
O        7.58470000       6.52690000       2.72778000      -0.02536400      -0.16846400       0.04938500
O       -0.82909000       6.96239000       7.16257000      -0.18466200       0.04887700      -0.07827100
O        5.80667000       9.14874000      10.45204000       0.05891400      -0.10682000      -0.11007200
O       -1.27447000       0.90558000       9.81356000      -0.06009900      -0.01235900       0.01803300
O        1.48613000       3.90006000       5.16659000      -0.16795000       0.06922700       0.01695300
O        2.83056000       1.34642000       0.11324000      -0.06412400      -0.00169900       0.03516200
O        2.39364000       1.27489000       2.76581000      -0.02211000      -0.01737900      -0.05882600
O        1.92334000       3.96758000       2.51033000       0.02747100      -0.02520300       0.00941300
O        0.61473000       3.89821000      10.47515000       0.08091200       0.03785900      -0.06448000
O       -0.39935000       0.90731000       4.50514000      -0.13221900      -0.03960000      -0.10245300
O        1.04866000       3.96865000       7.82470000       0.00422500       0.08731800      -0.00802900
O        3.79999000       4.31831000       6.07449000      -0.27358200       0.00798200      -0.10214700
O        0.03685000       6.96064000       1.85170000      -0.07816700       0.06653400      -0.01269700
O        4.27564000       8.77949000       3.42594000       0.12842900      -0.00493100       0.12407800
O        1.95657000       1.34441000       5.41759000       0.04210500       0.07946600      -0.00114100
O        4.71899000       9.58115000       0.77589000       0.04890200      -0.04745200       0.08669000
O        4.27750000       3.52599000       3.42022000       0.19579600      -0.04521500       0.09058000
O        0.03798000       1.71393000       1.85175000      -0.08959600      -0.04127200      -0.07819600
O        3.40166000       3.52646000       8.74179000       0.08544300      -0.01724100       0.08174000
O       -0.39237000       6.15843000       4.50531000      -0.35178800      -0.19319500       0.07691700
O        1.92593000       9.21460000       2.51200000      -0.10364700       0.07416600      -0.05796700
O        2.39371000       6.52556000       2.76192000      -0.04220400       0.05855400       0.06722300
O        2.83127000       6.59320000       0.11505000       0.03381000      -0.01316800      -0.08003200
O        1.48820000       9.14649000       5.16296000       0.01686700      -0.04026500      -0.12044400
O       -0.82676000       1.70950000       7.16323000      -0.38372300       0.26960500      -0.07720800
O        4.71952000       4.33928000       0.77636000       0.08602800       0.02223500      -0.01346700
O        1.51851000       1.27149000       8.07820000       0.00273100      -0.00603700       0.08221800
Zr       0.37035000       0.22744000       6.41374000       0.25188400      -0.06421100       0.20758500
Zr       2.19851000       5.01899000       9.46676000      -0.33806300       0.04890100       0.17491500
Zr       7.77589000       8.03635000       6.78539000      -0.28455900      -0.14848500       0.00373500
Zr       2.65467000       2.87423000       6.82161000      -0.39050200      -0.33512300      -0.06223200
Zr       5.14204000       7.59757000       8.98475000      -0.06776000       0.13819700      -0.05609400
Zr       0.80640000       2.39347000       3.75929000       0.33269300       0.22531000       0.01872400
Zr       3.50169000       2.84917000       1.52223000      -0.19949100      -0.04085600      -0.01524600
Zr       3.11591000       5.02858000       4.22254000      -0.02178400       0.02185300       0.02610400
Zr       7.38140000      10.26214000       9.45222000      -0.24987200      -0.07726400      -0.06432900
Zr       6.01344000       7.60198000       3.79654000       0.18651600       0.22662000      -0.12976500
Zr       2.65295000       8.05889000       6.82615000      -0.30425400       0.17595400       0.02876900
Zr       8.25490000      10.26267000       4.14989000      -0.13710800       0.00542300      -0.04392600
Zr       2.19030000      10.26160000       9.47553000      -0.15106100       0.12010700      -0.11682800
Zr       0.36413000       5.47436000       6.41707000       0.42669900      -0.01377700      -0.07614800
Zr       6.44976000       0.22878000       1.08416000       0.05276800      -0.10063500      -0.02835800
Zr       8.19053000       5.01245000       4.19733000      -0.13101800       0.28775200      -0.07631300
Zr       8.69052000       2.85440000       1.49479000       0.12574500       0.00362700      -0.02119800
Zr       6.02096000       2.43059000       3.76972000      -0.06390500      -0.37033000      -0.26266800
Zr       0.81064000       7.63870000       3.76573000       0.30290400       0.02762500      -0.02927500
Zr       3.49415000       8.09726000       1.51959000      -0.11527500      -0.11375800       0.07602800
Zr       3.06660000      10.26545000       4.17194000      -0.15771000       0.03044500       0.00028500
Zr       1.24514000       5.47208000       1.10674000       0.16988600      -0.17562700       0.11186800
Zr       5.57824000       0.22836000       6.38628000       0.13017100      -0.09900600       0.04925100
Zr       7.34564000       5.02206000       9.40017000       0.00360400       0.02185200       0.15215900
Zr       7.76516000       2.91453000       6.77499000      -0.13408600      -0.21997900       0.06933900
Zr       5.14786000       2.42984000       9.02317000       0.22456100      -0.14828400       0.05379700
Zr      -0.06292000       7.63495000       9.06190000       0.13318900       0.24752900       0.15779200
Zr      -0.06343000       2.39605000       9.06326000       0.19354500      -0.06490800      -0.11310600
Zr       6.45412000       5.46092000       1.08042000       0.02043900       0.19494200       0.03593100
Zr       8.69280000       8.09435000       1.49472000      -0.33525500       0.00824000      -0.09653100
Zr       1.24709000       0.22842000       1.10767000       0.25472900      -0.08395000      -0.00278300
95
Lattice="10.381444 0.0 -0.053824 0.0 10.490337 0.0 -1.746774 0.0 10.614441" Properties=species:S:1:pos:R:3:forces:R:3 energy=-895.3971919 stress="6.35162 -0.25148 -0.90378 -0.25148 2.21546 -0.58927 -0.90378 -0.58927 -2.0652" pbc="T T T"
O        0.61610000       9.14420000      10.47645000      -0.08018600      -0.03090500       0.03844400
O        8.60821000       3.52455000       8.71526000       0.03083600       0.26758700      -0.09097900
O        4.34896000       1.70852000       7.13216000       0.07551700      -0.01516100      -0.00107100
O        6.72674000       3.84047000       5.09729000       0.47673600      -0.29990700      -0.10208100
O        8.01969000       1.34450000       0.08692000       0.05466200       0.15105700      -0.03642600
O        7.58545000       1.27264000       2.73592000      -0.00177200       0.17479600       0.11378300
O        7.11429000       3.96966000       2.47265000      -0.04426300      -0.02259700       0.16767700
O        4.78102000       0.89869000       4.48042000       0.18813500       0.27919900      -0.02236300
O        9.06238000       4.33875000       6.05485000      -0.10067000      -0.08875900       0.02419600
O        9.91445000       4.33744000       0.75240000      -0.17261200      -0.08412300      -0.13338900
O        5.22132000       1.71422000       1.81669000       0.02938400       0.03594500       0.02106800
O        7.19174000       6.62643000       5.34486000       0.71677500       0.11733200      -0.50224600
O        1.94716000       6.59451000       5.41414000      -0.03565200      -0.06638800       0.04309600
O        1.51840000       6.52145000       8.07862000       0.02255100      -0.06433700      -0.04894400
O        1.04799000       9.22003000       7.82534000      -0.02866200      -0.08505400       0.00109800
O       -1.26726000       6.15522000       9.81504000      -0.19242400      -0.13987400      -0.18569500
O        3.84949000       9.58846000       6.08177000       0.06777000      -0.05481400       0.04687100
O        9.48689000       3.51938000       3.39510000      -0.31101600       0.27984200       0.14562700
O        3.40356000       8.78525000       8.74199000       0.20781500      -0.07565700       0.07265400
O        3.90834000       0.90008000       9.78681000       0.13615900       0.19718300      -0.12104700
O        6.70903000       1.26890000       8.04917000       0.00184600       0.00014900      -0.12204000
O        6.74143000       6.55779000       8.09805000       0.65384400       0.48235700       0.17916800
O        6.23977000       9.22614000       7.79618000       0.02506700      -0.13265900      -0.13452800
O        3.90407000       6.15140000       9.79611000       0.00833300       0.01321800       0.01510800
O        9.04332000       9.59093000       6.05195000      -0.32834600      -0.41672200       0.07486900
O        8.60144000       8.77673000       8.71482000      -0.01703900      -0.03589900      -0.05235400
O        4.31700000       7.00298000       7.15266000       0.02331000       0.21287700       0.13818600
O        6.67885000       9.15448000       5.13809000      -0.11578300       0.03925400       0.20954700
O        6.28169000       3.91691000       7.84760000       0.10674800      -0.38394000       0.53554400
O        8.02148000       6.59274000       0.09206000      -0.04645800      -0.22408300      -0.07752200
O        7.11476000       9.21760000       2.48230000       0.09030000       0.00168800       0.10260200
O        4.77506000       6.18487000       4.42989000      -0.19658400       0.17798900      -0.36007500
O        9.91237000       9.58486000       0.74747000       0.06858200      -0.01511800       0.07427900
O        9.47541000       8.77358000       3.39970000       0.00795200       0.08433000       0.02501400
O        5.21802000       6.95850000       1.82380000       0.07821400      -0.18771100       0.08266900
O        5.80110000       3.89690000      10.45863000      -0.08079300       0.15906400       0.06583500
O        7.14557000       1.33341000       5.39179000      -0.00632700      -0.02839400       0.12726500
O        7.58480000       6.52749000       2.72664000      -0.03201900      -0.19951900       0.07590500
O       -0.82821000       6.96249000       7.16287000      -0.22134000       0.05301300      -0.09108500
O        5.80682000       9.14927000      10.45247000       0.06230200      -0.12020200      -0.12149500
O       -1.27441000       0.90550000       9.81361000      -0.06646500      -0.01315300       0.02009700
O        1.48598000       3.90025000       5.16655000      -0.18824900       0.06773400       0.01474900
O        2.83065000       1.34636000       0.11324000      -0.07023600      -0.00217400       0.04000600
O        2.39371000       1.27483000       2.76571000      -0.02479800      -0.01870500      -0.06362000
O        1.92323000       3.96738000       2.51003000       0.02961200      -0.02561800       0.01141200
O        0.61476000       3.89823000      10.47523000       0.08686300       0.03996500      -0.06910600
O       -0.39913000       0.90739000       4.50507000      -0.15096100      -0.04553200      -0.11035200
O        1.04843000       3.96855000       7.82508000       0.00699000       0.09749700      -0.01751700
O        3.79568000       4.31638000       6.07380000      -0.19850900       0.05481900      -0.09771000
O        0.03702000       6.96057000       1.85166000      -0.08984900       0.07374300      -0.01441700
O        4.27500000       8.78000000       3.42573000       0.14942200      -0.01210400       0.13587700
O        1.95661000       1.34416000       5.41732000       0.04338000       0.08885500       0.00179400
O        4.71898000       9.58089000       0.77601000       0.05607500      -0.04492200       0.09319000
O        4.27704000       3.52571000       3.41947000       0.23120800      -0.04913000       0.11350600
O        0.03826000       1.71371000       1.85171000      -0.10466300      -0.04085700      -0.08583300
O        3.40097000       3.52622000       8.74240000       0.10788100      -0.01723900       0.08076500
O       -0.39149000       6.15907000       4.50527000      -0.39437100      -0.22164600       0.08224600
O        1.92607000       9.21457000       2.51186000      -0.11615600       0.08227500      -0.06090800
O        2.39379000       6.52602000       2.76145000      -0.04985000       0.05808800       0.07684700
O        2.83143000       6.59328000       0.11522000       0.03281400      -0.01485600      -0.08894800
O        1.48824000       9.14680000       5.16258000       0.01498200      -0.04704700      -0.12628700
O       -0.82566000       1.70886000       7.16360000      -0.43346400       0.29877100      -0.09130300
O        4.71957000       4.33933000       0.77653000       0.09161600       0.02043900      -0.01614400
O        1.51841000       1.27112000       8.07859000       0.00250000      -0.00322900       0.08276900
Zr       0.36992000       0.22737000       6.41369000       0.29117700      -0.07131400       0.22630500
Zr       2.19878000       5.01918000       9.46546000      -0.36790100       0.04675800       0.21358400
Zr       7.77145000       8.03072000       6.78402000      -0.22043100      -0.05894100       0.04091900
Zr       2.65678000       2.87645000       6.82112000      -0.47233100      -0.41231900      -0.05209000
Zr       5.14327000       7.59361000       8.97944000      -0.10325700       0.22307300       0.04540300
Zr       0.80591000       2.39339000       3.75915000       0.37726800       0.25105900       0.02876300
Zr       3.50131000       2.84901000       1.52248000      -0.21310700      -0.03348100      -0.02211000
Zr       3.12034000       5.02968000       4.22719000      -0.11022300       0.00065900      -0.05745800
Zr       7.38093000      10.26214000       9.45210000      -0.26481500      -0.08373200      -0.07230700
Zr       6.01448000       7.59844000       3.80247000       0.18595500       0.32539900      -0.27183000
Zr       2.65490000       8.05539000       6.82608000      -0.37900800       0.26505100       0.02782300
Zr       8.25445000      10.26272000       4.15023000      -0.13541500       0.00014000      -0.05726500
Zr       2.18980000      10.26155000       9.47507000      -0.15905900       0.13239200      -0.12435600
Zr       0.36311000       5.47445000       6.41733000       0.48966400      -0.01554900      -0.09001000
Zr       6.45077000       0.22884000       1.08453000       0.04295700      -0.11407700      -0.04038100
Zr       8.18400000       5.01203000       4.20214000       0.03578300       0.37298700      -0.20200200
Zr       8.68997000       2.85474000       1.49499000       0.15227000      -0.00404300      -0.02909400
Zr       6.02271000       2.43401000       3.77312000      -0.14259400      -0.51260400      -0.40207300
Zr       0.81054000       7.63862000       3.76621000       0.33273400       0.02578800      -0.03707900
Zr       3.49307000       8.09738000       1.51959000      -0.10617000      -0.13439200       0.08358400
Zr       3.06637000      10.26576000       4.17182000      -0.17331100       0.02556300       0.00769700
Zr       1.24484000       5.47195000       1.10671000       0.19573800      -0.18843800       0.12254400
Zr       5.57942000       0.22837000       6.38618000       0.10954000      -0.11218200       0.06716800
Zr       7.34181000       5.02255000       9.39514000       0.08439800       0.01369600       0.26870800