56
Lattice="30.0 0.0 0.0 0.0 30.0 0.0 0.0 0.0 30.0" Properties=species:S:1:pos:R:3:forces:R:3 energy=-457.12077205 stress="-39.68822 13.4073 0.62671 13.4073 -15.13231 2.24143 0.62671 2.24143 -20.70867" pbc="T T T"
Zr      15.39741000      12.66868000      13.13285000       2.48624600       1.09175000      -0.58147100
Zr      11.27566000      12.39454000      16.47411000       0.62983800       0.52072100      -1.62242600
Zr      15.25084000      17.86582000      13.37847000      -0.77609500       1.89094500      -1.83738300
Zr      11.12910000      17.59167000      16.71973000       2.40419300       0.22059800       0.18799800
Zr      19.23186000      12.61465000      16.56438000       2.74812600       2.84131800       1.49359200
Zr      19.08529000      17.81178000      16.81000000       0.66148500      -2.84759300      -2.27802600
Zr      10.91471000      12.18822000      13.19000000      -0.64096500       2.52687200       2.32237500
Zr      10.76814000      17.38535000      13.43562000       0.76993900      -0.70626200       1.04320900
Zr      18.87090000      12.40833000      13.28027000      -1.44827600       1.15462700       0.25032300
Zr      14.74916000      12.13418000      16.62153000      -0.19050700      -2.26916600       1.62673700
Zr      18.72434000      17.60546000      13.52589000       0.02438100      -0.85992900       1.79162500
Zr      14.60259000      17.33131000      16.86715000      -3.06651400      -0.61000800       0.88856000
Zr      12.89242000      15.27415000      11.65873000       0.80351400       1.05767300       1.55837100
Zr       8.77068000      15.00000000      15.00000000      -0.60862000      -2.69723100      -1.09054300
Zr      16.87343000      10.02297000      14.84465000      -3.26489900      -0.58623400       0.83972400
Zr      16.72687000      15.22011000      15.09026000      -0.98389400      -0.15104500       1.99804200
Zr      12.60512000      14.94596000      18.43153000      -0.46178900       1.13264800      -0.83750100
Zr      16.58030000      20.41724000      15.33588000      -1.85497700       0.42458900      -0.60126200
Zr      13.41970000       9.58276000      14.66412000       1.99148100      -0.56923600       0.50930800
Zr      17.39488000      15.05404000      11.56847000       0.49411300      -1.99343300       0.69069600
Zr      13.27313000      14.77989000      14.90973000       1.19787700      -0.14832200      -1.97081700
Zr      13.12657000      19.97703000      15.15535000       3.60423300      -0.19011300      -0.09533400
Zr      21.22932000      15.00000000      15.00000000      -0.47959100       2.50609000       3.87787800
Zr      17.10758000      14.72585000      18.34126000      -0.25947600      -0.19566500      -2.21490700
O       14.21193000      14.10610000      12.85075000      -2.32780900       1.85198100      -0.99201300
O       14.06537000      19.30324000      13.09637000      -1.22975400       1.01941000       1.35696500
O       18.04638000      14.05207000      16.28228000      -2.10242600       1.58072600       0.84544200
O       17.89982000      19.24920000      16.52790000      -1.06959100       1.88101500       0.57040600
O       12.10019000      10.75080000      13.47210000       0.98295400      -1.75357000      -0.58789500
O       11.95362000      15.94793000      13.71772000       0.41184100      -0.81086900      -0.53195300
O       15.93463000      10.69676000      16.90363000       0.87979500       0.01689000      -0.63348400
O       19.90981000      16.16804000      13.80798000       1.16199500       0.32391500      -0.41010500
O       15.78807000      15.89389000      17.14925000       2.48365900      -2.26145600       1.16730000
O       13.99594000      16.74296000      12.07818000       0.14843300      -0.50248200      -0.97785000
O        9.87419000      16.46882000      15.41944000       1.36811500       1.83644000       0.24577500
O       17.97695000      11.49179000      15.26409000       2.08754700       0.74812100      -0.24602400
O       17.83039000      16.68892000      15.50971000       2.37742300       2.81138200       0.55862900
O       12.16961000      13.31108000      14.49029000      -2.58147800      -2.67148000      -0.11055600
O       12.02305000      18.50821000      14.73591000      -2.36901000      -1.16820600      -1.10422600
O       20.12581000      13.53118000      14.58055000      -2.41806400      -3.42952100      -1.65948700
O       15.22120000      11.32023000      14.48126000      -0.55401400      -3.74054600       0.59205900
O       15.07463000      16.51736000      14.72687000      -1.39323000      -3.25371100       1.55984800
O       14.92807000      21.71450000      14.97249000       1.05899900      -3.47033500       1.37511200
O       15.07193000       8.28550000      15.02751000      -1.18194200       3.44746000      -1.39979100
O       14.92537000      13.48264000      15.27313000       1.43733000       3.16872500      -1.18945900
O       14.77880000      18.67977000      15.51874000       0.83117900       3.57631200      -0.72820400
O        9.01885000      13.79666000      13.53099000       1.11720800      -0.05154500       0.49539700
O       16.97504000      14.01677000      13.62126000       0.74385500      -3.59144400      -2.55109000
O       12.85330000      13.74262000      16.96252000       0.49204000      -2.23947800      -0.48321200
O       16.82848000      19.21391000      13.86688000       1.23615300      -0.71119500      -1.00095200
O       12.70673000      18.93976000      17.20814000      -0.53331400      -0.42810400      -1.26763000
O       20.80949000      13.96273000      17.05279000      -1.29982300      -3.43478000      -1.74827700
O       13.17153000      10.78609000      16.13312000      -0.98310200       1.19218300       1.13047000
O       17.14670000      16.25738000      13.03748000      -0.95393800       2.42888800       0.26379800
O       13.02496000      15.98323000      16.37874000      -0.52122700       3.61184000       2.56745800
O       20.98115000      16.20334000      16.46901000      -1.07962800       2.47983600      -1.05521600
56
Lattice="30.0 0.0 0.0 0.0 30.0 0.0 0.0 0.0 30.0" Properties=species:S:1:pos:R:3:forces:R:3 energy=-466.75246473 stress="-5.72568 8.10413 9.4602 8.10413 -18.55125 12.98755 9.4602 12.98755 -12.85177" pbc="T T T"
Zr      15.51735000      12.72135000      13.10480000      -1.23438000      -0.64434600      -0.42245500
Zr      11.30605000      12.41966000      16.39584000      -0.17787000       0.12177000      -0.84114200
Zr      15.21340000      17.95704000      13.28982000       0.32678900      -1.39535900       0.75241300
Zr      11.24508000      17.60232000      16.72880000       0.53464500      -1.27371500       0.83281200
Zr      19.36443000      12.75172000      16.63643000      -3.41925700      -1.87549900      -0.80532500
Zr      19.11720000      17.67441000      16.70010000       0.35111000       1.96208200       0.08475700
Zr      10.88379000      12.31012000      13.30204000      -0.72299700      -1.46100500       0.47580100
Zr      10.80529000      17.35128000      13.48595000      -0.85541500      -0.35564900       0.35559800
Zr      18.80103000      12.46403000      13.29235000      -1.67075800      -0.22671200       0.05397500
Zr      14.73997000      12.02471000      16.70001000      -0.65913000       1.64805100      -0.85430200
Zr      18.72551000      17.56398000      13.61232000      -0.28375100       0.40252700       0.73819600
Zr      14.45466000      17.30189000      16.91002000       0.96164700       0.50337800       0.82965500
Zr      12.93118000      15.32517000      11.73391000      -2.14595300      -0.67998400      -0.83499400
Zr       8.74131000      14.86988000      14.94739000       0.93263300       1.23471000       2.06173200
Zr      16.71593000       9.99469000      14.88516000       0.54670200       1.02362200       0.95035900
Zr      16.67940000      15.21282000      15.18666000       0.42106000       0.03745600      -0.93539300
Zr      12.58285000      15.00060000      18.39113000      -0.21591600       0.49817400      -1.28759000
Zr      16.49081000      20.43773000      15.30687000       2.13399200      -2.68508000       0.29093200
Zr      13.51577000       9.55530000      14.68869000      -1.67605800       2.63438200      -0.65283700
Zr      17.41871000      14.95787000      11.60179000       0.06176200      -0.83670800       1.09156300
Zr      13.33092000      14.77274000      14.81466000      -0.51831800      -0.03574400       0.13171000
Zr      13.30045000      19.96786000      15.15075000       0.06762000      -0.39576700      -1.01258700
Zr      21.20619000      15.12090000      15.18708000      -1.22842500      -3.25325700      -2.48248900
Zr      17.09506000      14.71641000      18.23441000       0.58853800      -1.21057200      -0.23511000
O       14.09963000      14.19545000      12.80289000       0.34018600      -1.16350800       0.92185900
O       14.00604000      19.35242000      13.16183000      -1.37846200       1.54739300       0.49673400
O       17.94495000      14.12832000      16.32307000      -0.22430700       0.41866200       0.91588100
O       17.84822000      19.33995000      16.55542000       0.25078800       0.18032300       0.34632600
O       12.14761000      10.66620000      13.44374000      -0.19326400      -0.16234200      -0.30030500
O       11.97349000      15.90881000      13.69205000       0.75477600      -1.44388700       0.09637600
O       15.97708000      10.69757000      16.87307000       1.44513600      -1.32928700       0.24033300
O       19.96587000      16.18367000      13.78820000       1.68214400      -0.65637400       0.13799400
O       15.90789000      15.78480000      17.20556000      -0.62196600       0.89953200      -0.49461000
O       14.00310000      16.71872000      12.03101000       2.24416400       2.80953900      -0.10849900
O        9.94020000      16.55741000      15.43130000      -0.37771600       0.20755500      -0.79130900
O       18.07766000      11.52788000      15.25223000       0.51981700      -1.00324200      -0.81056700
O       17.94508000      16.82455000      15.53666000      -1.34120400      -1.13319000      -1.10865100
O       12.04508000      13.18220000      14.48496000       1.15351700       0.99298300       1.15141300
O       11.90876000      18.45185000      14.68264000      -0.52413400       0.98273700       0.07069900
O       20.00915000      13.36573000      14.50050000       0.52562100       0.29222600       0.42010100
O       15.19447000      11.13977000      14.50982000      -1.79662400       0.01004000      -0.81730800
O       15.00742000      16.36040000      14.80212000      -1.39715800       0.68130300      -0.52514000
O       14.97916000      21.54708000      15.03883000      -1.79179800      -0.47408900       0.67254900
O       15.01491000       8.45182000      14.95998000       1.52448100       0.27690000      -0.46244300
O       14.99471000      13.63550000      15.21574000       1.39372700      -0.59399100       0.83908200
O       14.81890000      18.85230000      15.48361000       1.91764800      -0.09099100       1.03102600
O        9.07275000      13.79418000      13.55489000       1.27282700      -1.75288800      -1.94618800
O       17.01093000      13.84351000      13.49819000       1.76638700       0.98298500       0.92814400
O       12.87703000      13.63459000      16.93921000       0.72796500      -0.09865000       0.02279000
O       16.88811000      19.17960000      13.81859000       0.23774600      -0.44089100      -0.88786600
O       12.68100000      18.91911000      17.14699000       0.97250800       0.51833700      -1.19147100
O       20.74678000      13.79703000      16.96845000       3.71136500       1.78661600       0.00663500
O       13.12410000      10.84361000      16.18766000      -0.79787100       0.54986100       0.97246800
O       17.10068000      16.37455000      13.05020000      -0.82148700      -0.02613500      -0.38067200
O       12.99982000      16.15748000      16.50260000      -1.86009100      -0.84311300      -0.82753300
O       20.92907000      16.32297000      16.41810000      -1.43298700       4.33882900       3.09687200
56
Lattice="30.0 0.0 0.0 0.0 30.0 0.0 0.0 0.0 30.0" Properties=species:S:1:pos:R:3:forces:R:3 energy=-467.05325136 stress="-17.16851 8.14081 6.88529 8.14081 -24.97983 11.07444 6.88529 11.07444 -18.2136" pbc="T T T"
Zr      15.49942000      12.71348000      13.10899000      -0.61404000      -0.24668100      -0.24325900
Zr      11.30151000      12.41590000      16.40755000      -0.05309200       0.20038700      -1.04036000
Zr      15.21900000      17.94340000      13.30308000       0.09199300      -1.07861600       0.63789000
Zr      11.22774000      17.60072000      16.72744000       0.92795400      -1.05339000       0.80175800
Zr      19.34461000      12.73122000      16.62566000      -1.71914000      -0.57488500      -0.37293900
Zr      19.11243000      17.69495000      16.71653000       0.08526000       1.18441600      -0.59496700
Zr      10.88841000      12.29190000      13.28529000      -0.43447400      -0.83813200       1.03347300
Zr      10.79973000      17.35638000      13.47842000      -0.54988300      -0.35821000       0.46548800
Zr      18.81148000      12.45570000      13.29054000      -1.61730600       0.13089400       0.15566200
Zr      14.74134000      12.04108000      16.68828000      -0.50704100       1.16265100      -0.72585000
Zr      18.72534000      17.57018000      13.59940000      -0.22037800       0.26205700       0.95989800
Zr      14.47678000      17.30629000      16.90361000       0.30555200       0.08114500       0.65326800
Zr      12.92539000      15.31754000      11.72267000      -1.55263600      -0.44441800      -0.35911700
Zr       8.74570000      14.88933000      14.95526000       0.90398600       0.74946500       1.52764900
Zr      16.73948000       9.99892000      14.87910000      -0.13033400       0.97261300       0.96814600
Zr      16.68650000      15.21391000      15.17224000       0.35598000      -0.02524700      -0.61880800
Zr      12.58618000      14.99243000      18.39717000      -0.23919400       0.61427600      -1.28876800
Zr      16.50419000      20.43466000      15.31121000       1.23537800      -2.12138600       0.14269200
Zr      13.50141000       9.55940000      14.68501000      -0.81175000       2.03582500      -0.44385800
Zr      17.41515000      14.97225000      11.59681000       0.12393300      -1.03996200       1.10892100
Zr      13.32228000      14.77381000      14.82887000      -0.39590400      -0.06769300      -0.02298600
Zr      13.27445000      19.96923000      15.15144000       0.74843800      -0.55915900      -0.88381100
Zr      21.20965000      15.10282000      15.15911000      -1.42573300      -2.38102200      -1.36073500
Zr      17.09694000      14.71783000      18.25039000       0.31480700      -0.91252300      -0.77402100
O       14.11642000      14.18209000      12.81005000      -0.06818600      -0.72988500       0.57274200
O       14.01491000      19.34507000      13.15204000      -1.32357500       1.43970300       0.64201100
O       17.96012000      14.11692000      16.31697000      -0.53161200       0.62130900       0.93171200
O       17.85593000      19.32638000      16.55130000       0.17443400       0.32405100       0.41194500
O       12.14052000      10.67885000      13.44798000      -0.10184800      -0.31171800      -0.37487100
O       11.97052000      15.91466000      13.69589000       0.74248000      -1.36609500       0.02272600
O       15.97073000      10.69745000      16.87764000       1.30582200      -1.10246900       0.11061000
O       19.95749000      16.18133000      13.79116000       1.62737400      -0.55220400       0.07651300
O       15.88997000      15.80111000      17.19714000      -0.11156500       0.42109400      -0.09232400
O       14.00203000      16.72235000      12.03806000       1.88410400       2.26660800      -0.22469500
O        9.93033000      16.54417000      15.42953000      -0.25664600       0.31899000      -0.67605000
O       18.06260000      11.52248000      15.25400000       0.76256000      -0.81833600      -0.74236900
O       17.92793000      16.80427000      15.53263000      -0.67345000      -0.55750100      -0.72465400
O       12.06370000      13.20147000      14.48575000       0.50265600       0.45769200       0.83969500
O       11.92585000      18.46028000      14.69060000      -0.78954700       0.69615400      -0.11599900
O       20.02659000      13.39047000      14.51247000       0.14252500      -0.14820100       0.11473800
O       15.19847000      11.16676000      14.50555000      -1.52372800      -0.52201700      -0.67439400
O       15.01747000      16.38387000      14.79087000      -1.36856300       0.32236100      -0.38987700
O       14.97152000      21.57211000      15.02891000      -1.15629900      -1.15197000       0.81627900
O       15.02344000       8.42695000      14.97008000       0.87123400       1.01629800      -0.65587400
O       14.98434000      13.61265000      15.22432000       1.38200600      -0.18366400       0.68770500
O       14.81290000      18.82651000      15.48887000       1.58509400       0.46684500       0.77221300
O        9.06469000      13.79455000      13.55132000       1.22138800      -1.45868300      -1.48082500
O       17.00556000      13.86941000      13.51659000       1.45730200       0.37744300       0.53331600
O       12.87349000      13.65074000      16.94270000       0.69771700      -0.35620800      -0.04530900
O       16.87919000      19.18473000      13.82581000       0.38386300      -0.50502900      -0.92143600
O       12.68485000      18.92219000      17.15613000       0.69858100       0.35216900      -1.25303400
O       20.75616000      13.82180000      16.98106000       2.13659900       0.48042500      -0.43441300
O       13.13119000      10.83501000      16.17951000      -0.81639900       0.64981800       0.99387200
O       17.10756000      16.35703000      13.04830000      -0.86871000       0.25361400      -0.28530200
O       13.00358000      16.13142000      16.48408000      -1.44853700      -0.21010300      -0.44429600
O       20.93686000      16.30508000      16.42571000      -1.35944900       3.81710600       2.28427900
56
Lattice="30.0 0.0 0.0 0.0 30.0 0.0 0.0 0.0 30.0" Properties=species:S:1:pos:R:3:forces:R:3 energy=-471.48749298 stress="-16.64227 10.67167 8.88789 10.67167 -33.36481 3.60034 8.88789 3.60034 -16.17312" pbc="T T T"
Zr      15.50589000      12.71740000      13.08937000      -0.83099500      -0.28378100      -0.22813800
Zr      11.30794000      12.43266000      16.33588000      -0.54869000      -0.00534000      -0.32366800
Zr      15.21231000      17.91971000      13.30691000      -1.09111400      -0.66386300       0.54292000
Zr      11.30522000      17.55455000      16.76763000       0.17765300      -1.23121900       0.79053900
Zr      19.30308000      12.74456000      16.62936000      -0.36348100      -0.03150200      -0.40118600
Zr      19.12579000      17.71005000      16.65642000       1.47890900       0.97375100       0.55487800
Zr      10.85900000      12.28846000      13.36655000      -1.39143500      -0.85381300      -0.18551300
Zr      10.78490000      17.32961000      13.51498000      -0.16325200      -0.93832800       0.33340500
Zr      18.71528000      12.47818000      13.30137000      -0.93938500      -0.70639000      -0.45418100
Zr      14.71491000      12.06335000      16.67735000       0.85931100       0.44780100      -0.54806200
Zr      18.71537000      17.57026000      13.66969000       0.48902200      -0.50890500       0.48431300
Zr      14.44764000      17.30144000      16.94677000       0.66764000       0.17578800       0.60908800
Zr      12.86410000      15.31172000      11.72794000       0.60370700       1.81344100       0.51519700
Zr       8.77939000      14.88621000      15.01130000       1.76249300      -1.04290000      -0.88422900
Zr      16.68714000      10.03614000      14.93630000       0.20865900       0.21686300       1.03622200
Zr      16.68922000      15.21059000      15.17158000      -0.62019000       0.55711100      -1.39675600
Zr      12.56844000      15.03722000      18.32499000      -0.32063600       0.52780400      -0.69945800
Zr      16.53574000      20.34140000      15.30937000       0.88012200      -1.52226100       0.29476200
Zr      13.49162000       9.64662000      14.67145000      -0.71247000       1.71338900      -0.28148800
Zr      17.42795000      14.89535000      11.65849000      -0.09970600      -0.68144600       0.46296600
Zr      13.32072000      14.76854000      14.79988000       0.23136400      -0.16008800       0.57638300
Zr      13.36052000      19.94037000      15.10873000      -0.16262300       0.44760000      -1.22078000
Zr      21.13613000      15.02689000      15.15035000      -1.96912000       0.81424800       2.01927200
Zr      17.10799000      14.67235000      18.18279000       0.28593700      -1.05860700       0.82178500
O       14.08026000      14.17416000      12.82281000      -0.09104000      -0.42836100       0.30839100
O       13.93555000      19.42688000      13.20131000      -0.04103300       0.07076400       0.72159500
O       17.90546000      14.16839000      16.37255000       0.34877700      -0.14593200       0.15936100
O       17.84895000      19.36819000      16.57866000      -0.26084300       0.75255200       0.08397000
O       12.14967000      10.63943000      13.42211000       0.03021300      -0.35407100      -0.12474500
O       12.01110000      15.83925000      13.68942000      -0.21283400      -0.17074700      -0.17562900
O       16.04431000      10.64610000      16.87384000      -0.12546100       0.43367200      -0.45127900
O       20.05011000      16.16007000      13.78893000       0.38390500       0.18432300      -0.13071700
O       15.91993000      15.78879000      17.20935000      -0.80955700       1.11819100      -0.64134700
O       14.09231000      16.82131000      12.01369000      -0.02630100      -0.33483200      -0.71030600
O        9.93769000      16.58510000      15.40137000      -0.42296400       0.23020500      -0.61630800
O       18.12786000      11.49478000      15.21577000       0.79789700      -0.40341000      -0.06754600
O       17.93009000      16.81800000      15.50663000      -1.33667000      -1.02242700      -0.90559700
O       12.05066000      13.18505000      14.52349000       1.18738200       0.76246100       0.81281800
O       11.85535000      18.47631000      14.66953000      -0.76906100       0.71517500      -0.06149500
O       19.99902000      13.33496000      14.49433000       0.64177400       0.58646600       0.42768900
O       15.11931000      11.08935000      14.48237000      -1.87634900       0.91398400      -0.79917500
O       14.93369000      16.35287000      14.79472000      -0.71809100       0.69404200      -0.28575700
O       14.93240000      21.46905000      15.08659000      -0.69816600      -0.60950600       0.80002900
O       15.04747000       8.52334000      14.91956000       0.60166100       0.35247600      -0.53647600
O       15.06937000      13.64893000      15.23966000       0.99883500      -0.90088600       0.64379200
O       14.89886000      18.89901000      15.51469000       2.28732400      -1.20364000       1.12616800
O        9.13767000      13.72555000      13.48903000       0.64960700       0.11444800       0.92528300
O       17.08430000      13.83621000      13.50542000       0.88860300       0.97613100       1.37635200
O       12.91311000      13.60235000      16.93373000       1.13000500      -0.11691800       0.14088300
O       16.91467000      19.15102000      13.76851000       0.48160500      -0.38709300      -0.87142400
O       12.70999000      18.93261000      17.07954000       0.88279700       0.40916700      -0.92653900
O       20.83774000      13.79564000      16.93597000       0.76192400       0.00186500      -0.78997200
O       13.07906000      10.88231000      16.24203000      -0.69765700       0.32981200       0.71925500
O       17.05340000      16.40330000      13.03868000      -0.61449600      -0.00871600      -0.23573300
O       12.92840000      16.17274000      16.49965000      -0.95618100      -0.76003900      -1.42230100
O       20.85794000      16.51885000      16.51767000      -0.84732600       0.20148900      -0.91151000
56
Lattice="30.0 0.0 0.0 0.0 30.0 0.0 0.0 0.0 30.0" Properties=species:S:1:pos:R:3:forces:R:3 energy=-471.94009799 stress="-9.26458 9.82547 8.7377 9.82547 -27.56505 1.29363 8.7377 1.29363 -7.08515" pbc="T T T"
Zr      15.50949000      12.71957000      13.07848000      -1.07984200      -0.33341600      -0.16489000
Zr      11.31152000      12.44196000      16.29609000      -0.85909200      -0.16686700       0.46764000
Zr      15.20860000      17.90655000      13.30904000      -1.23122100      -0.66125600       0.51499700
Zr      11.34824000      17.52892000      16.78994000      -0.67282700      -0.71737400       0.63687800
Zr      19.28002000      12.75196000      16.63141000       0.39650300       0.03001100      -0.58933000
Zr      19.13321000      17.71843000      16.62305000       1.65615800       1.31853400       1.42980300
Zr      10.84267000      12.28655000      13.41166000      -1.85814800      -1.00857300      -1.02430400
Zr      10.77667000      17.31475000      13.53528000      -0.01644500      -1.02946700       0.20875500
Zr      18.66187000      12.49066000      13.30738000      -0.19247000      -1.45322500      -0.74194300
Zr      14.70024000      12.07572000      16.67128000       1.15630900       0.48843700      -0.45132800
Zr      18.70983000      17.57031000      13.70872000       0.77910200      -0.73425100      -0.12852800
Zr      14.43147000      17.29876000      16.97073000       0.91995300       0.25487800       0.58121300
Zr      12.83008000      15.30849000      11.73086000       1.12059500       2.17231300       0.68237900
Zr       8.79809000      14.88447000      15.04242000       2.02650100      -1.47623400      -1.56716800
Zr      16.65808000      10.05680000      14.96806000       0.58308000      -0.12361400       1.01914900
Zr      16.69074000      15.20875000      15.17121000      -1.22803700       0.91469600      -1.94662300
Zr      12.55860000      15.06209000      18.28492000      -0.29635300       0.28014800      -0.15106400
Zr      16.55325000      20.28962000      15.30835000       0.71178100      -0.94271500       0.35078300
Zr      13.48619000       9.69504000      14.66393000      -0.90244400       1.28286000      -0.07697100
Zr      17.43505000      14.85265000      11.69273000      -0.24950800      -0.28334000      -0.00703300
Zr      13.31985000      14.76561000      14.78379000       0.76790500      -0.41989000       1.05280400
Zr      13.40831000      19.92434000      15.08501000      -1.29683300       1.36084100      -0.87620100
Zr      21.09531000      14.98473000      15.14548000      -1.73357100       0.99819700       2.18924700
Zr      17.11413000      14.64710000      18.14527000       0.04927200      -1.02198200       2.32345500
O       14.06019000      14.16976000      12.82989000      -0.07137500      -0.22511700       0.17100900
O       13.89149000      19.47231000      13.22866000       0.54064800      -0.54830000       0.17243900
O       17.87512000      14.19696000      16.40340000       0.96234800      -0.63582000      -0.67538300
O       17.84507000      19.39140000      16.59385000      -0.43644400       0.94125800      -0.00607400
O       12.15475000      10.61754000      13.40775000       0.08188500      -0.34134500      -0.06901700
O       12.03363000      15.79738000      13.68583000      -0.81824600       0.47218500      -0.37687700
O       16.08515000      10.61758000      16.87174000      -0.58211400       0.88117400      -0.61353900
O       20.10153000      16.14827000      13.78769000      -0.18461900       0.53898800      -0.20423500
O       15.93656000      15.78195000      17.21613000      -1.15460200       1.47931300      -0.94973300
O       14.14243000      16.87625000      12.00017000      -0.56188700      -1.00241100      -0.85587400
O        9.94178000      16.60783000      15.38574000      -0.48841200       0.00689100      -0.43847200
O       18.16408000      11.47940000      15.19455000       0.82067800      -0.28782100       0.33657200
O       17.93128000      16.82562000      15.49219000      -1.73466600      -1.36045700      -0.95523400
O       12.04342000      13.17594000      14.54443000       1.64155300       1.00697100       0.65131800
O       11.81621000      18.48522000      14.65784000      -0.65074400       0.65659400      -0.05904000
O       19.98371000      13.30415000      14.48427000       0.90477400       0.89629500       0.56865900
O       15.07537000      11.04637000      14.46950000      -1.91025800       1.95024300      -0.93873600
O       14.88718000      16.33566000      14.79685000      -0.37573400       0.88012500      -0.14712800
O       14.91069000      21.41183000      15.11861000      -0.22306900      -0.04671700       0.69348300
O       15.06081000       8.57685000      14.89151000       0.40915300      -0.19356900      -0.45237300
O       15.11658000      13.66907000      15.24818000       0.75445900      -1.23874000       0.52915500
O       14.94658000      18.93925000      15.52903000       2.67615700      -2.46460900       1.33002800
O        9.17819000      13.68725000      13.45445000       0.40145600       0.56600400       1.63384000
O       17.12801000      13.81778000      13.49922000       0.39235900       1.47579100       1.92126500
O       12.93510000      13.57549000      16.92876000       1.29192900       0.05946700       0.20043400
O       16.93436000      19.13230000      13.73670000       0.53945600      -0.26315600      -0.82336900
O       12.72395000      18.93840000      17.03701000       0.99306400       0.16446200      -0.56343600