72
Lattice="30.0 0.0 0.0 0.0 30.0 0.0 0.0 0.0 30.0" Properties=species:S:1:pos:R:3:forces:R:3 energy=-608.89512982 stress="-47.27394 -4.24744 -5.63454 -4.24744 -34.34682 -1.92496 -5.63454 -1.92496 -27.75169" pbc="T T T"
Zr      15.39741000      17.32290000      16.87761000       3.59227000      -2.77298400       2.42774100
Zr      11.27566000      17.61206000      13.53761000      -0.23683300      -3.47133400      -4.29659400
Zr      15.25084000      12.12692000      16.60864000      -0.50581500      -1.20844800       1.27328800
Zr      11.12910000      12.41608000      13.26864000       2.63297600       1.75585100      -1.52465000
Zr      19.23186000      17.39236000      13.44636000       2.29496800      -5.44404400      -5.45261200
Zr      19.08529000      12.19638000      13.17739000       2.30548200       3.20782100       1.13096100
Zr      10.91471000      17.80362000      16.82262000      -2.22520300      -6.25111400       0.96640200
Zr      10.76814000      12.60764000      16.55364000      -2.16810900       5.05680500       5.07264500
Zr      18.87090000      17.58392000      16.73136000      -1.42747200      -2.24111500       1.01764800
Zr      14.74916000      17.87308000      13.39136000       1.34489400       0.52244600      -2.47686200
Zr      18.72434000      12.38794000      16.46239000       3.14997900      -0.24791300       0.53117600
Zr      14.60259000      12.67710000      13.12239000       0.77390700      -1.25842500      -6.09819800
Zr      12.89242000      14.71084000      18.34000000      -4.90170500      -2.90351800      -0.48093000
Zr       8.77068000      15.00000000      15.00000000       0.66258100       3.04607500       4.41494100
Zr      16.87343000      19.97628000      15.17772000      -4.11644800      -0.82624200      -0.40675400
Zr      16.72687000      14.78030000      14.90875000      -0.60561800      -1.84765400      -2.72448100
Zr      12.60512000      15.06946000      11.56875000      -3.14579500      -2.43487300      -0.96349200
Zr      16.58030000       9.58432000      14.63977000      -1.58373500       1.93444200      -0.67942100
Zr      13.41970000      20.41568000      15.36023000       1.77957500      -0.02026700      -0.76771800
Zr      17.39488000      14.93054000      18.43125000       4.55640200       0.17326200       0.03066400
Zr      13.27313000      15.21970000      15.09125000       1.34436600      -0.65055700       0.76334600
Zr      13.12657000      10.02372000      14.82228000       5.58633200       0.91776200      -0.16486800
Zr      21.22932000      15.00000000      15.00000000      -0.81749700      -4.33538900      -3.89341500
Zr      17.10758000      15.28916000      11.66000000       5.08737000       0.53046400       0.59394300
O       14.21193000      15.88423000      17.15324000      -2.19264800      -0.82162500       0.06769400
O       10.09019000      16.17339000      13.81324000      -1.56703000      -0.06160500       1.47306900
O       14.06537000      10.68825000      16.88427000      -1.83027200      -1.54797600      -1.48019700
O       18.04638000      15.95369000      13.72199000      -2.13301500      -1.31010100       0.42660700
O       17.89982000      10.75771000      13.45302000      -2.79679500      -3.89594300       0.48434000
O       12.10019000      19.24229000      16.54698000       2.31145100       3.14249100       0.06132300
O       11.95362000      14.04631000      16.27801000       2.23141400       1.70194100      -0.27645000
O       15.93463000      19.31175000      13.11573000       1.57849800       1.57816700       1.81016100
O       19.90981000      13.82661000      16.18676000       2.12730500       2.18444000      -1.19298700
O       15.78807000      14.11577000      12.84676000       2.70328200       3.29893100       0.59267800
O       13.99594000      13.24392000      17.91396000       1.62571600       0.25914200       0.65209900
O        9.87419000      13.53308000      14.57396000       2.29180700      -4.28262400      -1.21659100
O       17.97695000      18.50936000      14.75168000       2.36921200       0.00698300       0.03499400
O       17.83039000      13.31338000      14.48270000       1.69964600      -2.11564300       0.40989400
O       13.70864000      13.60254000      11.14270000       0.03133600       0.95830400      -0.13071800
O       16.29136000      16.39746000      18.85730000      -1.68384000       0.91710000      -0.01867800
O       12.16961000      16.68662000      15.51730000      -2.70616400       3.44129700       0.16894900
O       12.02305000      11.49064000      15.24832000      -3.07246400       0.54047500       0.31198600
O       20.12581000      16.46692000      15.42604000      -2.84448400       4.88224500       1.54130000
O       16.00406000      16.75608000      12.08604000      -2.50309300       0.90649200      -0.10202800
O       19.97924000      11.27094000      15.15707000      -2.08389800       1.35987200       0.33995300
O       15.85750000      11.56010000      11.81707000      -1.45829900       0.70088100       1.58093700
O       11.24019000      13.41196000      18.69756000       2.32235700       0.19536300      -1.70164800
O       15.22120000      18.67740000      15.53528000      -0.81953200       4.44061000      -0.81195100
O       19.19638000      13.19226000      18.60630000      -2.56488200      -0.14298400      -1.08580000
O       15.07463000      13.48142000      15.26631000      -1.38995100       3.39726700      -1.19751000
O       10.95289000      13.77058000      11.92631000       0.42815700      -0.99673000       0.34104000
O       14.92807000       8.28544000      14.99733000       0.66291900       3.33865100      -1.27508300
O       18.90908000      13.55088000      11.83505000      -2.13913500      -0.04955400      -0.31719600
O       11.09092000      16.44911000      18.16495000       2.24462700       1.52896000      -0.21780600
O       15.07193000      21.71456000      15.00267000      -0.97585900      -3.52781400       1.46125600
O       19.04711000      16.22942000      18.07369000      -0.66922900       1.13696900      -0.34645500
O       14.92537000      16.51858000      14.73370000       1.13700400      -2.89338800       2.07052000
O       10.80362000      16.80774000      11.39370000       2.49389200       1.15884400       2.20856700
O       14.77880000      11.32260000      14.46472000       0.20744900      -5.50842900       2.66194600
O       18.75981000      16.58804000      11.30244000      -2.14594500       0.25469400       1.82523900
O        9.01885000      16.19672000      16.47440000       0.17287100       2.12364000      -2.09749400
O       16.97504000      15.97702000      16.38315000       0.93422500       4.71643100       2.37758200
O       12.85330000      16.26618000      13.04315000       1.67830400       3.87192200       2.40497700
O       16.82848000      10.78104000      16.11417000       0.85028700       0.02345000       0.81325200
O       12.70673000      11.07020000      12.77417000      -1.53815500       0.05235900       1.99034400
O       20.80949000      16.04648000      12.95189000      -0.31968400       2.86626100       2.95012000
O        9.19051000      13.95351000      17.04811000       0.33777500      -2.82558400      -3.08866400
O       17.29327000      18.92980000      17.22583000       0.17839700      -0.03163000      -1.57174400
O       13.17153000      19.21896000      13.88583000      -1.39886400      -0.17184600      -0.64929100
O       17.14670000      13.73382000      16.95685000      -2.63993500      -2.34206500      -1.27551400
O       13.02496000      14.02298000      13.61686000      -2.55549500      -2.76034600      -1.35168800
O       20.98115000      13.80328000      13.52560000       0.03387000      -0.92934600       2.05190800
72
Lattice="30.0 0.0 0.0 0.0 30.0 0.0 0.0 0.0 30.0" Properties=species:S:1:pos:R:3:forces:R:3 energy=-628.16842853 stress="16.09711 21.72896 -1.08381 21.72896 6.62361 -2.02119 -1.08381 -2.02119 21.43334" pbc="T T T"
Zr      15.57071000      17.18912000      16.99473000      -2.48115100       1.59764800       1.89755800
Zr      11.26424000      17.44459000      13.33033000       1.49069700       1.17251000      -2.01524000
Zr      15.22644000      12.06862000      16.67006000      -0.93943100       0.64614800      -0.63056500
Zr      11.25612000      12.50079000      13.19509000       2.39445000      -4.01871800       6.05219500
Zr      19.34257000      17.12973000      13.18331000      -3.91639600       4.08891800       2.31035700
Zr      19.19651000      12.35114000      13.23195000      -1.89558700      -2.26701100       1.86037900
Zr      10.80736000      17.50205000      16.86924000       0.14021600       5.69379900      -6.00340800
Zr      10.66355000      12.85159000      16.79836000       4.61608000      -4.27049700      -3.18612800
Zr      18.80204000      17.47580000      16.78046000      -2.19541500       4.89452800      -4.73576100
Zr      14.81404000      17.89828000      13.27187000       0.87682700      -0.73931800       1.48157800
Zr      18.87630000      12.37598000      16.48801000      -0.75848000       0.76352300       1.15923300
Zr      14.63993000      12.61639000      12.82820000       0.72805200      -0.72986300      -0.89668100
Zr      12.65595000      14.57077000      18.31680000       5.66554800       2.85868200      -2.27799000
Zr       8.80264000      15.14695000      15.21299000       1.01527500      -8.28648800      -6.95515100
Zr      16.67484000      19.93642000      15.15810000       2.23634600      -0.75981700      -1.23224400
Zr      16.69765000      14.69117000      14.77731000      -1.47429500       0.44721800       1.59513300
Zr      12.45336000      14.95200000      11.52227000      -0.72460400       0.48938800       2.79905100
Zr      16.50390000       9.67764000      14.60700000       0.32350300       1.06992500       0.05435700
Zr      13.50555000      20.41470000      15.32319000      -1.00381800      -3.15602900       0.29451500
Zr      17.61469000      14.93890000      18.43273000       0.48495300      -1.41811500      -1.75887600
Zr      13.33799000      15.18831000      15.12808000       1.31611100       0.94862900      -0.89504500
Zr      13.39607000      10.06800000      14.81433000      -5.88222500      -2.92055600       2.17233300
Zr      21.18989000      14.79085000      14.81217000       0.49347900      10.04454300      10.05049800
Zr      17.35301000      15.31475000      11.68866000      -1.51437000      -1.54948600       1.84816600
O       14.10615000      15.84459000      17.15651000      -1.47625000       0.00794000       0.03228100
O       10.01459000      16.17041000      13.88431000      -3.00652300      -1.45538000       1.72940200
O       13.97707000      10.61357000      16.81286000      -0.42335900      -0.38910600       0.05126100
O       17.94348000      15.89049000      13.74257000      -0.29146500      -1.01539700      -1.32067700
O       17.76489000      10.56976000      13.47638000       1.52432800       0.31697100      -1.06575700
O       12.21170000      19.39389000      16.54994000      -0.68202200       0.37241000       0.45371100
O       12.06127000      14.12842000      16.26467000      -0.25447400       0.86654800       1.68327800
O       16.01079000      19.38789000      13.20306000       0.66120600       1.10191100       0.44496300
O       20.01244000      13.93200000      16.12920000       1.06259500       0.95828900      -0.64147800
O       15.91848000      14.27492000      12.87535000       0.88655900       0.33274600       0.22755400
O       14.07437000      13.25642000      17.94542000       0.22906900       0.07278600       0.99130300
O        9.98476000      13.32648000      14.51527000      -1.39239300       0.89122100       1.20180900
O       18.09125000      18.50970000      14.75336000       0.87256900       0.94901000      -0.74976500
O       17.91238000      13.21132000      14.50248000       1.82136000      -1.54538700      -0.06747600
O       13.71016000      13.64877000      11.13640000       0.31838100       0.35840400      -1.04471500
O       16.21013000      16.44170000      18.85639000       0.37332200      -0.94353800      -0.09624100
O       12.03906000      16.85263000      15.52545000      -0.80190900      -0.29401000      -0.40857200
O       11.87483000      11.51671000      15.26337000      -1.29106000      -0.42484500       0.90928100
O       19.98858000      16.70245000      15.50040000       1.40835900      -0.43037100      -1.40618500
O       15.88331000      16.79981000      12.08112000      -0.19757200      -0.49652200      -1.42407000
O       19.87871000      11.33654000      15.17347000      -0.14704600       0.82670500      -0.30283100
O       15.78715000      11.59391000      11.89334000      -0.37221000      -0.18344300      -0.16242300
O       11.35222000      13.42139000      18.61547000      -3.79366500      -3.49152100       1.76428400
O       15.18166000      18.89163000      15.49611000      -3.40047600      -1.30135800       1.93572700
O       19.07264000      13.18536000      18.55392000      -1.99438300       0.71091300      -0.81200500
O       15.00758000      13.64532000      15.20853000      -1.67804100      -0.80009400       0.39573400
O       10.97355000      13.72250000      11.94276000      -1.47355200       3.87805200      -5.63702200
O       14.96005000       8.44651000      14.93582000      -1.14592300       1.00718000      -1.02929100
O       18.80589000      13.54849000      11.81975000      -1.27019000       1.09935500      -0.57144000
O       11.19920000      16.52288000      18.15444000       2.64327400      -4.73890700       6.43373400
O       15.02485000      21.54436000      15.07316000       1.32278700      -0.20413800       0.70040200
O       19.01482000      16.28427000      18.05698000       1.21937700      -3.72252400       5.12856700
O       14.98022000      16.37899000      14.83358000       1.11140600       0.69113700      -0.45855800
O       10.92394000      16.86364000      11.50024000       1.36107500       0.22197400       0.61932300
O       14.78881000      11.05686000      14.59314000       6.42465800       4.84085500      -2.54415000
O       18.65629000      16.60032000      11.39050000       1.04847400       1.57224200      -1.45731500
O        9.02719000      16.29917000      16.37321000       1.07047700       7.65273100       6.29612500
O       17.02011000      16.20456000      16.49785000       3.86073900      -2.44140500      -1.97665100
O       12.93426000      16.45298000      13.15917000       1.04525300      -1.04046900      -1.00501900
O       16.86950000      10.78218000      16.15341000       0.63376100       0.88858400       1.71016300
O       12.63253000      11.07273000      12.87019000       0.91694200      -0.41365600       0.10326200
O       20.79407000      16.18476000      13.09421000       4.99988100      -2.38595300       0.33423500
O        9.20681000      13.81720000      16.89910000      -5.22511600       2.89749100      -0.33029600
O       17.30188000      18.92827000      17.15000000      -0.80961100       0.18373000      -0.47610600
O       13.10404000      19.21067000      13.85450000      -1.08963500      -0.16096000      -1.63746700
O       17.01935000      13.62083000      16.89532000      -0.15327300       0.30288200       0.43825400
O       12.90168000      13.88981000      13.55165000      -1.54556200       0.43537800      -0.18334200
O       20.98279000      13.75844000      13.62459000      -1.89590800     -10.15802200      -9.76406000
72
Lattice="30.0 0.0 0.0 0.0 30.0 0.0 0.0 0.0 30.0" Properties=species:S:1:pos:R:3:forces:R:3 energy=-630.75922373 stress="-18.62253 16.28755 -2.64328 16.28755 -23.83495 -4.74076 -2.64328 -4.74076 -5.48983" pbc="T T T"
Zr      15.52896000      17.22135000      16.96652000      -0.30362400       0.07365800       1.60297100
Zr      11.26699000      17.48494000      13.38027000       1.20669500      -0.44916400      -3.42041700
Zr      15.23232000      12.08267000      16.65527000      -0.75622700       0.25615200      -0.59311500
Zr      11.22552000      12.48038000      13.21281000       2.58398400      -2.33834600       4.01317500
Zr      19.31590000      17.19300000      13.24668000      -1.06885300       0.65533100      -0.03230400
Zr      19.16972000      12.31386000      13.21880000      -1.24046400      -1.38139400       1.79323800
Zr      10.83322000      17.57470000      16.85801000       0.42362700       2.32623900      -3.60900200
Zr      10.68875000      12.79282000      16.73941000       2.01399500      -1.13389100      -0.90886600
Zr      18.81863000      17.50185000      16.76863000      -1.81899200       2.27005600      -3.16338700
Zr      14.79841000      17.89221000      13.30066000       1.29205200      -1.06473600       0.59721800
Zr      18.83969000      12.37886000      16.48184000       0.39782800       0.39520500       0.92305400
Zr      14.63093000      12.63102000      12.89907000       1.99209300      -2.03323300      -2.44088900
Zr      12.71292000      14.60451000      18.32239000       1.87935100       0.07661900      -1.79054200
Zr       8.79494000      15.11155000      15.16168000       1.55957900      -5.28200300      -3.25973300
Zr      16.72269000      19.94602000      15.16282000       0.27162500      -1.50303800      -1.14334400
Zr      16.70469000      14.71264000      14.80897000      -0.97614800       0.00012200       0.82495700
Zr      12.48992000      14.98029000      11.53346000      -1.23738200      -0.17257400       2.36391800
Zr      16.52231000       9.65516000      14.61489000      -0.15511300       1.60320600      -0.45858900
Zr      13.48487000      20.41494000      15.33211000       0.35679700      -2.52355800       0.04503000
Zr      17.56174000      14.93688000      18.43238000       1.53539900      -1.12609100      -1.60276100
Zr      13.32237000      15.19588000      15.11921000       1.13554400       0.36986300      -0.68442200
Zr      13.33114000      10.05733000      14.81624000      -1.34902500      -0.55805100       1.62645200
Zr      21.19939000      14.84123000      14.85742000      -0.86750600       5.07927700       4.84429400
Zr      17.29388000      15.30859000      11.68175000       0.72262400      -0.43906400       1.60039800
O       14.13164000      15.85414000      17.15572000      -1.61970200      -0.03742100       0.09066800
O       10.03280000      16.17113000      13.86719000      -2.60648900      -1.04978400       1.62049600
O       13.99834000      10.63156000      16.83006000      -0.80952400      -0.70168100      -0.40027500
O       17.96827000      15.90571000      13.73761000      -1.05145300      -1.29058900      -0.79323400
O       17.79739000      10.61504000      13.47076000       0.71008600      -0.37540000      -0.52150300
O       12.18483000      19.35737000      16.54923000      -0.50981800       0.57227800       0.32990400
O       12.03534000      14.10864000      16.26789000       0.64642000       1.31421900       1.10091400
O       15.99244000      19.36955000      13.18202000       0.91865300       1.36312300       0.96744600
O       19.98772000      13.90661000      16.14307000       1.44914100       1.47867300      -0.91082900
O       15.88707000      14.23658000      12.86846000       1.23069700       1.09428900       0.54032700
O       14.05547000      13.25341000      17.93784000       0.49979400       0.25083700       0.97767600
O        9.95812000      13.37625000      14.52941000      -0.81527900       0.07179800       0.72959800
O       18.06371000      18.50962000      14.75296000       1.19265700       0.98438800      -0.55138800
O       17.89263000      13.23591000      14.49771000       1.64318200      -1.56356500       0.08931000
O       13.70979000      13.63764000      11.13792000       0.10338700       0.60975300      -0.79774800
O       16.22969000      16.43104000      18.85661000      -0.11218100      -0.51431900      -0.26189800
O       12.07051000      16.81264000      15.52348000      -1.25644200       0.53199500      -0.24592700
O       11.91053000      11.51043000      15.25975000      -1.74317100      -0.38500900       0.76428000
O       20.02164000      16.64571000      15.48249000       0.47032500       0.63665300      -0.60244600
O       15.91240000      16.78927000      12.08231000      -0.88665200      -0.07357700      -0.95671900
O       19.90293000      11.32074000      15.16952000      -0.78353800       1.12323500       0.05785700
O       15.80409000      11.58577000      11.87497000      -1.46755100       0.74909200       0.89428300
O       11.32523000      13.41912000      18.63524000      -1.35236800      -1.66988600       0.30847100
O       15.19119000      18.84002000      15.50554000      -2.46339700       0.23546400       1.47020500
O       19.10245000      13.18703000      18.56654000      -2.29645000       0.55214700      -0.90116900
O       15.02373000      13.60583000      15.22245000      -1.63612800       0.02886400       0.20019900
O       10.96857000      13.73408000      11.93880000      -0.77057700       2.57478100      -3.93442400
O       14.95235000       8.40771000      14.95064000      -0.80440400       1.73729600      -1.08165300
O       18.83075000      13.54907000      11.82344000      -1.57592100       0.90021700      -0.49635800
O       11.17312000      16.50511000      18.15697000       2.03564600      -2.55611600       3.85989200
O       15.03619000      21.58536000      15.05618000       0.38056500      -1.31865400       0.92889700
O       19.02260000      16.27105000      18.06101000       0.62462800      -2.14537200       3.36162500
O       14.96700000      16.41262000      14.80952000       0.98428900       0.21539500      -0.05017000
O       10.89495000      16.85017000      11.47458000       1.76638200       0.78290900       1.76077200
O       14.78640000      11.12087000      14.56220000       3.32653200       1.68782400      -1.43067000
O       18.68123000      16.59736000      11.36929000      -0.00695500       0.95022000      -0.07421000
O        9.02518000      16.27449000      16.39759000       0.92129500       5.68432400       3.51748400
O       17.00925000      16.14974000      16.47021000       2.53116400      -0.51315600      -1.09972100
O       12.91476000      16.40798000      13.13122000       0.94558100      -0.01806000      -0.52550700
O       16.85961000      10.78190000      16.14395000       0.63719900       0.73599100       1.57021800
O       12.65040000      11.07212000      12.84706000       0.16421600      -0.19853000       0.57185500
O       20.79778000      16.15145000      13.05993000       2.18453600      -0.08845100       0.93459400
O        9.20288000      13.85004000      16.93500000      -2.65701200       0.83637900      -1.03486500
O       17.29980000      18.92864000      17.16827000      -0.63608300       0.28905500      -0.77548800
O       13.12030000      19.21266000      13.86205000      -1.27623600       0.01063400      -1.32293500
O       17.05003000      13.64805000      16.91014000      -0.82073600      -0.08558600       0.20753300
O       12.93138000      13.92189000      13.56736000      -1.96297500      -0.20902400      -0.29695800
O       20.98239000      13.76924000      13.60074000      -1.04319100      -6.30823900      -4.91574100
72
Lattice="30.0 0.0 0.0 0.0 30.0 0.0 0.0 0.0 30.0" Properties=species:S:1:pos:R:3:forces:R:3 energy=-632.46537771 stress="48.94185 7.61436 -24.48103 7.61436 -1.77638 18.01155 -24.48103 18.01155 29.4864" pbc="T T T"
Zr      15.60028000      17.15892000      17.09775000      -2.78217100       0.38093100       1.96199700
Zr      11.31678000      17.38192000      13.12123000       0.41981800       6.11743100      13.72469500
Zr      15.18559000      12.06575000      16.65825000       0.09085500       1.61814400      -0.00305200
Zr      11.40667000      12.41469000      13.36090000      -1.39233400       2.39425800       0.66406800
Zr      19.32129000      17.09387000      13.11578000      -1.31463500       3.27605300       3.83876000
Zr      19.16748000      12.32656000      13.32799000       2.08783700      -1.53807300      -2.28727000
Zr      10.79986000      17.53314000      16.71522000      -0.23523800       1.30013000       5.95241900
Zr      10.72976000      12.86078000      16.81807000      -0.19909200      -1.29259500      -2.42165100
Zr      18.70122000      17.55289000      16.64753000      -1.44185000       1.02505000       1.27792500
Zr      14.88966000      17.85572000      13.26929000      -0.71356200       0.36111400       1.53134100
Zr      18.93272000      12.39112000      16.53683000      -2.78157400       0.59117100       0.08870100
Zr      14.74078000      12.50778000      12.64224000     -16.51212200      15.90154600      11.34503000
Zr      12.68287000      14.53911000      18.22875000       1.85650500       5.27075800       0.96427700
Zr       8.88228000      14.94131000      15.11679000       1.15984900       1.33493800       1.78908500
Zr      16.63745000      19.85739000      15.10067000       1.27959800       2.14072900       0.06702000
Zr      16.64549000      14.66879000      14.78219000      -0.52299700      -0.61056300       1.99257700
Zr      12.35844000      14.91458000      11.61914000       2.72196100       0.62393200       0.44314000
Zr      16.47759000       9.77469000      14.57771000       1.67817200       0.15137800       1.82122600
Zr      13.54349000      20.29858000      15.31596000      -3.29968100      -2.01533500       0.64713500
Zr      17.74039000      14.88929000      18.35951000      -1.43101700      -1.01528100      -0.05068100
Zr      13.40642000      15.19742000      15.10590000      -0.39083600       1.65901400      -0.27642100
Zr      13.40179000      10.05349000      14.88701000      -1.48379100      -0.86952000       1.31868600
Zr      21.14015000      14.97156000      14.98745000       0.24203800       0.43038800      -5.26568600
Zr      17.44782000      15.30102000      11.76934000      -2.84188800      -4.79152400      -0.16164500
O       14.00522000      15.83292000      17.16149000       0.57524500       0.79212400      -1.02318700
O        9.87592000      16.12146000      13.97656000      -0.00989600       0.13934500      -1.01177200
O       13.91773000      10.56260000      16.77655000      -0.47632700      -0.15937900      -0.30060700
O       17.86936000      15.81535000      13.71132000       1.87511200       0.91489100      -0.66492500
O       17.76362000      10.50533000      13.45831000       1.60490000       0.41193200      -1.68896700
O       12.21629000      19.45824000      16.56583000      -0.58492700       0.35778200       0.18916000
O       12.11798000      14.20938000      16.31188000      -1.12948900      -0.68538000       0.05534000
O       16.07209000      19.46960000      13.26941000      -0.02978800      -0.48232700      -0.61208400
O       20.10475000      14.02636000      16.07293000      -1.29179300      -0.95764400       1.97365300
O       16.00774000      14.36513000      12.90734000      -0.75617100      -1.62614300       0.19264700
O       14.11701000      13.27108000      17.99821000       1.87171200      -1.92602800      -0.17977700
O        9.97508000      13.27790000      14.53403000      -1.11713900       0.73620400       0.42438600
O       18.17471000      18.55499000      14.72847000       1.43554000      -0.45166100      -0.72512100
O       18.00842000      13.11389000      14.51154000      -1.87522800       1.76481200       2.68488200
O       13.71528000      13.68838000      11.09818000       0.47867700      -0.04289900      -0.44640000
O       16.18458000      16.42919000      18.84414000       0.25561200      -0.51324400      -0.75863200
O       11.94859000      16.91875000      15.51620000       2.87125000      -2.71709300      -3.62704900
O       11.75756000      11.50558000      15.30225000      -0.41148500      -0.53822000       0.54075300
O       19.97572000      16.79083000      15.49141000       2.64793400      -1.72762900      -1.68875100
O       15.81227000      16.80741000      12.03595000       0.25466900      -0.20584500      -1.30773500
O       19.81749000      11.40459000      15.18024000       0.71255600      -0.37282100       0.46999200
O       15.70209000      11.63680000      11.95355000      16.26557100     -15.13701400     -12.42755800
O       11.31826000      13.34707000      18.60902000      -2.30578800      -2.76258600       0.94400100
O       15.05862000      18.95623000      15.55378000      -1.45644900      -3.25313900       1.75388800
O       18.93612000      13.20899000      18.49939000      -0.30180400       0.12871700      -0.34436000
O       14.91561000      13.68779000      15.20322000      -1.10338900      -1.19809200       0.53751600
O       10.94335000      13.82865000      11.76623000      -2.63867100      -2.44197600      -0.02376200
O       14.93114000       8.56673000      14.87071000      -2.15472500      -0.10714600      -0.76205800
O       18.70761000      13.58923000      11.79312000      -1.67364500       1.02103800      -0.03374700
O       11.31987000      16.42402000      18.32904000       0.96073800      -0.07872700      -1.37321600
O       15.03051000      21.44108000      15.13352000       2.59610200       1.01134000       0.35603900
O       19.03540000      16.19953000      18.20714000       1.66549600       1.65116500      -0.27134200
O       15.03919000      16.35383000      14.85636000       1.56928900       0.84299700      -0.47767300
O       11.03525000      16.91363000      11.60785000      -1.72514700      -3.85195600     -12.54376900
O       14.94407000      11.06763000      14.55969000       0.79434900       3.35610900      -1.74259100
O       18.62997000      16.64704000      11.40920000       2.12470100       2.89745500      -2.56209400
O        9.07159000      16.58591000      16.50932000      -0.94913000      -1.33576300      -1.98510700