60
Lattice="6.786824 0.0 0.0 0.0 5.205 0.0 0.0 0.0 39.684507" Properties=species:S:1:pos:R:3:forces:R:3 energy=-544.19675204 stress="55.56324 13.0254 11.50556 13.0254 94.7744 5.54435 11.50556 5.54435 39.65927" pbc="T T T"
O        5.20427000       3.57427000      18.75751000      -0.21399300      -2.47739200       2.37986400
O        3.44323000       4.23323000      20.74641000      -0.21165700       2.47491200       2.37602300
O        6.09361000       0.97177000      18.93810000       0.21165700      -2.47491200      -2.37602300
O        2.78696000       4.10258000      17.95559000       1.78347900      -3.52370300      -1.06682500
O        6.74988000       1.10242000      21.72892000      -1.78347900       3.52370300       1.06682500
O        1.72410000       1.50008000      19.74002000      -1.77821500      -3.51846100       1.05924300
O        1.02591000       3.70492000      19.94448000       1.77821500       3.51846100      -1.05924300
O        0.81047000       1.63073000      24.90479000       0.24876200       2.38687800      -2.23235700
O        1.68218000       3.57427000      22.73530000      -0.23980100      -2.47210800       2.36834100
O        6.70796000       4.23323000      24.72420000      -0.13190800       2.50457500       2.45246700
O        1.46674000       1.50008000      27.69561000      -2.91576600      -4.27684700       1.98923800
O        2.57152000       0.97177000      22.91589000       0.19440600      -2.48945000      -2.40570400
O        3.22779000       1.10242000      25.70671000      -1.84047900       3.41869600       0.80506000
O        4.98883000       1.50008000      23.71782000      -1.73702100      -3.49997400       1.03814400
O        4.29064000       3.70492000      23.92228000       1.80239900       3.52278700      -1.07643500
O        4.07521000       1.63073000      28.88258000       0.20179700       2.28978400      -1.49001100
O        4.94691000       3.57427000      26.71310000       0.27760600      -2.34175800       2.25287400
O        3.18587000       4.23323000      28.70199000      -2.52399000       2.29329500       3.16426100
O        5.83625000       0.97177000      26.89369000       0.76777300      -2.01568000      -2.19547500
O        2.52960000       4.10258000      25.91117000       1.38696600      -3.17766000      -1.36041800
O        6.49252000       1.10242000      29.68451000       2.12196500      -0.94162400       1.24202700
O        6.05169000       4.10258000      21.93338000       1.78520000      -3.53067100      -1.04327200
O        4.33257000       1.63073000      20.92700000       0.21399300       2.47739200      -2.37986400
O        0.76855000       3.70492000      27.90007000       1.17080100       4.87147900       1.80962500
O        4.58993000       1.63073000      12.97141000      -0.27760600       2.34175800      -2.25287400
O        0.22042000       1.10242000      13.77333000      -1.38696600       3.17766000       1.36041800
O        1.98146000       1.50008000      11.78444000      -1.17080100      -4.87147900      -1.80962500
O        1.28327000       3.70492000      11.98890000       2.91576600       4.27684700      -1.98923800
O        4.54800000       3.70492000      15.96669000       1.73702100       3.49997400      -1.03814400
O        3.70059000       4.23323000      12.79082000      -0.76777300       2.01568000       2.19547500
O        5.46163000       3.57427000      10.80192000      -0.20179700      -2.28978400       1.49001100
O        3.04432000       4.10258000      10.00000000      -2.12196500       0.94162400      -1.24202700
O        1.06783000       1.63073000      16.94920000       0.23980100       2.47210800      -2.36834100
O        6.35097000       0.97177000      10.98251000       2.52399000      -2.29329500      -3.16426100
O        0.17849000       4.23323000      16.76861000      -0.19440600       2.48945000       2.40570400
O        2.82888000       0.97177000      14.96031000       0.13190800      -2.50457500      -2.45246700
O        6.30905000       4.10258000      13.97779000       1.84047900      -3.41869600      -0.80506000
O        3.48515000       1.10242000      17.75113000      -1.78520000       3.53067100       1.04327200
O        5.24619000       1.50008000      15.76223000      -1.80239900      -3.52278700       1.07643500
O        1.93954000       3.57427000      14.77972000      -0.24876200      -2.38687800       2.23235700
Zr       6.13709000       2.42709000      28.05242000      -5.08853700      -3.47564200       0.43083500
Zr       2.88503000       2.77791000      27.54326000       4.07659800       0.01674800       0.71881700
Zr       1.12398000       5.02959000      29.53216000       2.49144500       0.75898800      -4.28712600
Zr       1.11131000       0.17541000      26.06352000      -0.88997300       0.46785800       0.53072400
Zr       6.65181000       2.42709000      12.14125000      -4.07659800      -0.01674800      -0.71881700
Zr       3.39975000       2.77791000      11.63209000       5.08853700       3.47564200      -0.43083500
Zr       1.63870000       5.02959000      13.62099000       0.88997300      -0.46785800      -0.53072400
Zr       1.36867000       0.17541000      18.10794000      -1.19545400       0.33022200       1.11455000
Zr       4.90343000       5.02959000      17.59878000       1.19676100      -0.33266700      -1.12717400
Zr       6.66448000       2.77791000      15.60988000       1.09739200       0.33914900      -1.23359200
Zr       2.87236000       2.42709000      24.07463000      -1.09739200      -0.33914900       1.23359200
Zr       6.40712000       2.77791000      23.56547000       1.10681000       0.32641200      -1.19344100
Zr       4.64607000       5.02959000      25.55436000       0.95184100      -0.30062400      -0.81676900
Zr       4.63340000       0.17541000      22.08573000      -1.19676100       0.33266700       1.12717400
Zr       3.12972000       2.42709000      16.11904000      -1.10681000      -0.32641200       1.19344100
Zr       6.39445000       2.42709000      20.09683000      -1.17628600      -0.32944000       1.11193200
Zr       3.14239000       2.77791000      19.58768000       1.17628600       0.32944000      -1.11193200
Zr       1.38134000       5.02959000      21.57657000       1.19545400      -0.33022200      -1.11455000
Zr       4.89076000       0.17541000      14.13014000      -0.95184100       0.30062400       0.81676900
Zr       1.62603000       0.17541000      10.15235000      -2.49144500      -0.75898800       4.28712600
60
Lattice="6.786824 0.0 0.0 0.0 5.205 0.0 0.0 0.0 39.684507" Properties=species:S:1:pos:R:3:forces:R:3 energy=-559.65716899 stress="45.51073 -2.83062 28.89153 -2.83062 43.69683 9.72373 28.89153 9.72373 58.92287" pbc="T T T"
O        5.19395000       3.45476000      18.87232000      -0.80952000      -0.10256700       0.11554800
O        3.43301000       4.35262000      20.86103000      -0.78023300       0.10431500       0.11710600
O        6.10382000       0.85238000      18.82348000       0.78023300      -0.10431500      -0.11710600
O        2.87300000       3.93259000      17.90412000      -0.12950100       0.69112000      -1.57355000
O        6.66384000       1.27241000      21.78039000       0.12950100      -0.69112000       1.57355000
O        1.63832000       1.33034000      19.79112000       0.14988000       0.70784100       1.56561900
O        1.11170000       3.87466000      19.89338000      -0.14988000      -0.70784100      -1.56561900
O        0.82247000       1.74588000      24.79710000       0.64224100       0.23880300      -0.32127200
O        1.67061000       3.45501000      22.84956000      -0.83875800      -0.15029000       0.13102100
O        6.70159000       4.35405000      24.84251000      -1.06176000       0.05314700       0.14740900
O        1.32608000       1.29375000      27.79158000       1.27214900       1.13163500       0.35981300
O        2.58090000       0.85168000      22.79984000       0.82682300      -0.10165200      -0.12783300
O        3.13900000       1.26735000      25.74555000       0.34740500      -0.80192300       1.59087100
O        4.90504000       1.33123000      23.76790000       0.16931500       0.67722300       1.65614200
O        4.37760000       3.87487000      23.87035000      -0.00569700      -0.49914800      -1.26073600
O        4.08494000       1.74119000      28.81070000       1.49919800       0.17186400      -0.15882100
O        4.96030000       3.46130000      26.82178000      -0.67589800       0.20250000      -0.14764400
O        3.06410000       4.34386000      28.85465000       0.82015000      -0.39831700       0.44508300
O        5.87329000       0.87453000      26.78777000       0.06578300      -1.53761900      -1.78169000
O        2.59651000       3.94928000      25.84554000       0.10267500       0.23293100      -0.97367400
O        6.59489000       1.05699000      29.74443000      -0.79391600       1.12197500       0.76058200
O        6.13781000       3.93225000      21.88305000      -0.18138000       0.70166300      -1.55836700
O        4.34289000       1.75024000      20.81219000       0.80952000       0.10256700      -0.11554800
O        0.82503000       3.93993000      27.98737000      -3.34215200      -3.46554500      -3.22828500
O        4.57653000       1.74370000      12.86273000       0.67589800      -0.20250000       0.14764400
O        0.15350000       1.25572000      13.83896000      -0.10267500      -0.23293100       0.97367400
O        1.92498000       1.26507000      11.69714000       3.34215200       3.46554500       3.22828500
O        1.42393000       3.91125000      11.89293000      -1.27214900      -1.13163500      -0.35981300
O        4.63180000       3.87377000      15.91661000      -0.16931500      -0.67722300      -1.65614200
O        3.66355000       4.33047000      12.89674000      -0.06578300       1.53761900       1.78169000
O        5.45190000       3.46381000      10.87381000      -1.49919800      -0.17186400       0.15882100
O        2.94195000       4.14801000       9.94008000       0.79391600      -1.12197500      -0.76058200
O        1.07940000       1.74999000      16.83495000       0.83875800       0.15029000      -0.13102100
O        6.47274000       0.86114000      10.82986000      -0.82015000       0.39831700      -0.44508300
O        0.16911000       4.35332000      16.88467000      -0.82682300       0.10165200       0.12783300
O        2.83524000       0.85095000      14.84199000       1.06176000      -0.05314700      -0.14740900
O        6.39784000       3.93765000      13.93895000      -0.34740500       0.80192300      -1.59087100
O        3.39903000       1.27275000      17.80146000       0.18138000      -0.70166300       1.55836700
O        5.15924000       1.33013000      15.81416000       0.00569700       0.49914800       1.26073600
O        1.92754000       3.45912000      14.88741000      -0.64224100      -0.23880300       0.32127200
Zr       5.89161000       2.25942000      28.07320000       3.18705800      -1.23372400       3.63670900
Zr       3.08169000       2.77872000      27.57794000      -3.86543000       1.48617300       0.73676800
Zr       1.24417000       5.06621000      29.32534000       2.21389700       2.43840900       1.90426200
Zr       1.06838000       0.19798000      26.08913000       1.91095600       0.00135200      -0.17596000
Zr       6.45514000       2.42628000      12.10657000       3.86543000      -1.48617300      -0.73676800
Zr       3.64523000       2.94558000      11.61130000      -3.18705800       1.23372400      -3.63670900
Zr       1.68164000       5.00702000      13.59538000      -1.91095600      -0.00135200       0.17596000
Zr       1.31100000       0.19134000      18.16170000       1.14654500      -0.12447000      -0.79153900
Zr       4.96117000       5.01354000      17.54440000      -1.11554800       0.14224500       0.77026200
Zr       6.71742000       2.79427000      15.55037000      -1.04158100      -0.44507800       0.59897200
Zr       2.81942000       2.41073000      24.13414000       1.04158100       0.44507800      -0.59897200
Zr       6.46051000       2.79366000      23.50789000      -0.99065300      -0.12156800       0.79742300
Zr       4.69199000       5.01509000      25.51496000      -1.62741000       0.02327500       0.08944300
Zr       4.57567000       0.19146000      22.14011000       1.11554800      -0.14224500      -0.77026200
Zr       3.07632000       2.41134000      16.17661000       0.99065300       0.12156800      -0.79742300
Zr       6.33770000       2.41120000      20.15047000       1.18861200       0.14094700      -0.77515500
Zr       3.19913000       2.79380000      19.53403000      -1.18861200      -0.14094700       0.77515500
Zr       1.43901000       5.01366000      21.52280000      -1.14654500       0.12447000       0.79153900
Zr       4.84484000       0.18991000      14.16955000       1.62741000      -0.02327500      -0.08944300
Zr       1.50584000       0.13879000      10.35917000      -2.21389700      -2.43840900      -1.90426200
60
Lattice="6.786824 0.0 0.0 0.0 5.205 0.0 0.0 0.0 39.684507" Properties=species:S:1:pos:R:3:forces:R:3 energy=-560.16770181 stress="36.40685 -1.38998 25.92985 -1.38998 40.39296 9.43955 25.92985 9.43955 48.18213" pbc="T T T"
O        5.19557000       3.47356000      18.85426000      -0.72826100      -0.44075000       0.44752400
O        3.43462000       4.33384000      20.84300000      -0.70291000       0.44229300       0.45019100
O        6.10222000       0.87116000      18.84151000       0.70291000      -0.44229300      -0.45019100
O        2.85946000       3.95934000      17.91222000       0.04038400       0.13768700      -1.44332200
O        6.67738000       1.24566000      21.77229000      -0.04038400      -0.13768700       1.44332200
O        1.65181000       1.35705000      19.78308000      -0.02276100       0.15339700       1.43407600
O        1.09820000       3.84795000      19.90142000       0.02276100      -0.15339700      -1.43407600
O        0.82059000       1.72776000      24.81404000       0.59175500       0.56502900      -0.60649700
O        1.67243000       3.47378000      22.83158000      -0.75444800      -0.47575400       0.45581400
O        6.70260000       4.33504000      24.82390000      -0.91486500       0.39567000       0.47224600
O        1.34821000       1.32622000      27.77648000       0.83580100       0.34484200       0.90966400
O        2.57942000       0.87057000      22.81810000       0.73757300      -0.43815500      -0.45964100
O        3.15297000       1.24139000      25.73944000       0.12779100      -0.23729200       1.36380000
O        4.91822000       1.35780000      23.76002000      -0.00496600       0.12990800       1.50297400
O        4.36391000       3.84813000      23.87852000       0.14602700       0.01501800      -1.19777700
O        4.08341000       1.72381000      28.82201000       1.47589800       0.85344600      -0.78210500
O        4.95820000       3.47908000      26.80468000      -0.58447800      -0.20318700       0.22627600
O        3.08326000       4.32645000      28.83063000      -0.16916000       0.16005200       0.92256500
O        5.86746000       0.88983000      26.80444000       0.19708300      -1.68357700      -1.90438000
O        2.58598000       3.97340000      25.85587000       0.19759500      -0.19300500      -1.04413400
O        6.57878000       1.06414000      29.73500000      -0.25330100       0.75972300       0.83821000
O        6.12426000       3.95905000      21.89097000      -0.00200800       0.14790600      -1.42064100
O        4.34126000       1.73144000      20.83025000       0.72826100       0.44075000      -0.44752400
O        0.81615000       3.90295000      27.97363000      -2.74727400      -1.98252900      -1.71275600
O        4.57864000       1.72592000      12.87983000       0.58447800       0.20318700      -0.22627600
O        0.16403000       1.23160000      13.82864000      -0.19759500       0.19300500       1.04413400
O        1.93387000       1.30205000      11.71087000       2.74727400       1.98252900       1.71275600
O        1.40180000       3.87878000      11.90803000      -0.83580100      -0.34484200      -0.90966400
O        4.61862000       3.84720000      15.92449000       0.00496600      -0.12990800      -1.50297400
O        3.66937000       4.31517000      12.88007000      -0.19708300       1.68357700       1.90438000
O        5.45343000       3.48119000      10.86249000      -1.47589800      -0.85344600       0.78210500
O        2.95805000       4.14086000       9.94951000       0.25330100      -0.75972300      -0.83821000
O        1.07758000       1.73122000      16.85293000       0.75444800       0.47575400      -0.45581400
O        6.45358000       0.87855000      10.85388000       0.16916000      -0.16005200      -0.92256500
O        0.17059000       4.33443000      16.86641000      -0.73757300       0.43815500       0.45964100
O        2.83424000       0.86996000      14.86061000       0.91486500      -0.39567000      -0.47224600
O        6.38387000       3.96361000      13.94507000      -0.12779100       0.23729200      -1.36380000
O        3.41258000       1.24595000      17.79354000       0.00200800      -0.14790600       1.42064100
O        5.17292000       1.35687000      15.80599000      -0.14602700      -0.01501800       1.19777700
O        1.92943000       3.47724000      14.87047000      -0.59175500      -0.56502900       0.60649700
Zr       5.93023000       2.28580000      28.06993000       1.69528700      -1.16316700       3.02003600
Zr       3.05075000       2.77859000      27.57248000      -2.49994200       0.79605400       1.14723000
Zr       1.22526000       5.06045000      29.35788000       2.46595000       1.69350800      -0.11177500
Zr       1.07513000       0.19443000      26.08510000       1.54052900      -0.00776900      -0.22123600
Zr       6.48609000       2.42641000      12.11202000       2.49994200      -0.79605400      -1.14723000
Zr       3.60660000       2.91920000      11.61457000      -1.69528700       1.16316700      -3.02003600
Zr       1.67488000       5.01057000      13.59941000      -1.54052900       0.00776900       0.22123600
Zr       1.32007000       0.18883000      18.15324000       0.88492000      -0.07346200      -0.59624300
Zr       4.95208000       5.01607000      17.55296000      -0.86252800       0.08930800       0.57690600
Zr       6.70909000       2.79170000      15.55973000      -0.81670400      -0.31771200       0.40424900
Zr       2.82775000       2.41330000      24.12477000       0.81670400       0.31771200      -0.40424900
Zr       6.45211000       2.79118000      23.51695000      -0.77530900      -0.04553900       0.58453400
Zr       4.68477000       5.01737000      25.52116000      -1.35937200      -0.02670700       0.04991500
Zr       4.58475000       0.18893000      22.13155000       0.86252800      -0.08930800      -0.57690600
Zr       3.08472000       2.41382000      16.16755000       0.77530900       0.04553900      -0.58453400
Zr       6.34663000       2.41370000      20.14203000       0.92463200       0.08768500      -0.58142200
Zr       3.19020000       2.79130000      19.54247000      -0.92463200      -0.08768500       0.58142200
Zr       1.42994000       5.01617000      21.53126000      -0.88492000       0.07346200       0.59624300
Zr       4.85207000       0.18763000      14.16335000       1.35937200       0.02670700      -0.04991500
Zr       1.52475000       0.14455000      10.32663000      -2.46595000      -1.69350800       0.11177500
60
Lattice="6.786824 0.0 0.0 0.0 5.205 0.0 0.0 0.0 39.684507" Properties=species:S:1:pos:R:3:forces:R:3 energy=-564.02011214 stress="31.44422 -5.5477 8.99788 -5.5477 31.5264 1.59851 8.99788 1.59851 32.10879" pbc="T T T"
O        5.15943000       3.42852000      18.89866000      -0.61506500       0.20446000      -0.20323500
O        3.39969000       4.37893000      20.88748000      -0.64690400      -0.22170600      -0.20957300
O        6.13715000       0.82607000      18.79702000       0.64690400       0.22170600       0.20957300
O        2.87895000       3.93099000      17.83425000       0.05093400       0.35157200      -0.77605300
O        6.65789000       1.27401000      21.85026000      -0.05093400      -0.35157200       0.77605300
O        1.63320000       1.32949000      19.86055000      -0.09161200       0.31536300       0.80657900
O        1.11681000       3.87551000      19.82396000       0.09161200      -0.31536300      -0.80657900
O        0.85069000       1.77772000      24.76367000       0.91342200      -0.47681300       0.43574400
O        1.63481000       3.42715000      22.87625000      -0.50571500       0.15877000      -0.14674300
O        6.65855000       4.37825000      24.87017000      -0.05642600      -0.06767700      -0.11304700
O        1.35848000       1.30012000      27.83862000       1.08732400       0.61822500       0.33101600
O        2.61580000       0.82553000      22.77288000       0.63863000       0.30638000       0.34963000
O        3.14077000       1.26405000      25.81111000      -0.47697100      -0.18498000       1.23967300
O        4.90084000       1.32932000      23.84049000      -0.16328700       0.42566300       0.69720100
O        4.38853000       3.88360000      23.81193000      -0.12659500      -0.53591100      -1.06490200
O        4.15436000       1.78629000      28.77076000      -0.76456500      -0.20569900       0.75429400
O        4.93363000       3.44647000      26.83749000      -1.02741000      -0.56737300       0.91330200
O        3.05044000       4.35657000      28.90497000       1.39922400      -0.37385100       0.69301400
O        5.88425000       0.79127000      26.69379000       1.11685700       1.16857500       1.34450600
O        2.60890000       3.93302000      25.79365000      -0.14719200       0.00545200       0.02449200
O        6.58789000       1.09034000      29.78642000       0.30828300       0.11683000       1.54739400
O        6.14179000       3.93111000      21.81429000       0.05944700       0.34402300      -0.85448600
O        4.37740000       1.77648000      20.78585000       0.61506500      -0.20446000       0.20323500
O        0.69934000       3.85841000      27.91147000       0.02503600       0.14236200       1.00176700
O        4.60321000       1.75853000      12.84702000       1.02741000       0.56737300      -0.91330200
O        0.14111000       1.27198000      13.89085000       0.14719200      -0.00545200      -0.02449200
O        2.05067000       1.34659000      11.77304000      -0.02503600      -0.14236200      -1.00176700
O        1.39153000       3.90488000      11.84589000      -1.08732400      -0.61822500      -0.33101600
O        4.63599000       3.87568000      15.84401000       0.16328700      -0.42566300      -0.69720100
O        3.65259000       4.41373000      12.99072000      -1.11685700      -1.16857500      -1.34450600
O        5.38248000       3.41871000      10.91375000       0.76456500       0.20569900      -0.75429400
O        2.94894000       4.11466000       9.89808000      -0.30828300      -0.11683000      -1.54739400
O        1.11520000       1.77785000      16.80825000       0.50571500      -0.15877000       0.14674300
O        6.48639000       0.84843000      10.77954000      -1.39922400       0.37385100      -0.69301400
O        0.13421000       4.37947000      16.91163000      -0.63863000      -0.30638000      -0.34963000
O        2.87829000       0.82675000      14.81434000       0.05642600       0.06767700       0.11304700
O        6.39606000       3.94095000      13.87340000       0.47697100       0.18498000      -1.23967300
O        3.39505000       1.27389000      17.87022000      -0.05944700      -0.34402300       0.85448600
O        5.14831000       1.32140000      15.87258000       0.12659500       0.53591100       1.06490200
O        1.89932000       3.42728000      14.92084000      -0.91342200       0.47681300      -0.43574400
Zr       5.95922000       2.19715000      28.21530000       1.04858900      -0.61287500      -2.05373800
Zr       2.97418000       2.81595000      27.63318000      -0.13426100       0.64136100      -1.39397900
Zr       1.36507000       5.14707000      29.31034000      -1.71243800       0.16168600      -0.83130500
Zr       1.13833000       0.19868000      26.08000000      -0.81515500      -0.01780700      -1.82315200
Zr       6.56266000       2.38905000      12.05133000       0.13426100      -0.64136100       1.39397900
Zr       3.57762000       3.00785000      11.46921000      -1.04858900       0.61287500       2.05373800
Zr       1.61168000       5.00632000      13.60451000       0.81515500       0.01780700       1.82315200
Zr       1.34962000       0.18866000      18.13639000       0.60637400       0.20950700      -0.36346500
Zr       4.92359000       5.01696000      17.56879000      -0.62828000      -0.36996300       0.35959600
Zr       6.68176000       2.78020000      15.56645000      -0.59081500       0.31862600       0.63877400
Zr       2.85508000       2.42480000      24.11806000       0.59081500      -0.31862600      -0.63877400
Zr       6.42681000       2.79227000      23.53248000      -0.68020000       0.36797700       0.55712900
Zr       4.63065000       5.01316000      25.51543000      -0.05355200      -0.63563500       0.35393700
Zr       4.61324000       0.18804000      22.11572000       0.62828000       0.36996300      -0.35959600
Zr       3.11003000       2.41273000      16.15202000       0.68020000      -0.36797700      -0.55712900
Zr       6.37822000       2.41454000      20.12584000       0.51902000      -0.25730600      -0.36522100
Zr       3.15861000       2.79046000      19.55866000      -0.51902000       0.25730600       0.36522100
Zr       1.40039000       5.01634000      21.54812000      -0.60637400      -0.20950700       0.36346500
Zr       4.90619000       0.19184000      14.16908000       0.05355200       0.63563500      -0.35393700
Zr       1.38494000       0.05793000      10.37417000       1.71243800      -0.16168600       0.83130500
60
Lattice="6.786824 0.0 0.0 0.0 5.205 0.0 0.0 0.0 39.684507" Properties=species:S:1:pos:R:3:forces:R:3 energy=-564.04062927 stress="31.29904 -5.05923 10.04004 -5.05923 31.45627 2.06141 10.04004 2.06141 32.57167" pbc="T T T"
O        5.16189000       3.43158000      18.89564000      -0.62501300       0.15981200      -0.15739000
O        3.40207000       4.37586000      20.88446000      -0.65378900      -0.17666600      -0.16253400
O        6.13477000       0.82914000      18.80005000       0.65378900       0.17666600       0.16253400
O        2.87762000       3.93292000      17.83955000       0.05224200       0.33330800      -0.82271200
O        6.65921000       1.27208000      21.84496000      -0.05224200      -0.33330800       0.82271200
O        1.63446000       1.33136000      19.85528000      -0.08845400       0.30068100       0.85016600
O        1.11555000       3.87364000      19.82923000       0.08845400      -0.30068100      -0.85016600
O        0.84864000       1.77432000      24.76709000       0.89349500      -0.40621400       0.36348500
O        1.63737000       3.43032000      22.87322000      -0.52587300       0.11299500      -0.10254500
O        6.66154000       4.37531000      24.86702000      -0.11899400      -0.02851300      -0.06476200
O        1.35778000       1.30189000      27.83439000       1.06995400       0.57649700       0.40419300
O        2.61333000       0.82859000      22.77595000       0.64791500       0.25646400       0.29395900
O        3.14160000       1.26251000      25.80624000      -0.44043700      -0.18469000       1.24416000
O        4.90203000       1.33126000      23.83502000      -0.15372300       0.39694000       0.75439900
O        4.38685000       3.88119000      23.81646000      -0.10886800      -0.50034200      -1.07953000
O        4.14954000       1.78204000      28.77425000      -0.55863300      -0.12916000       0.64534100
O        4.93530000       3.44869000      26.83526000      -0.97880200      -0.56891000       0.89283900
O        3.05268000       4.35452000      28.89991000       1.23153400      -0.29551700       0.71708700
O        5.88311000       0.79798000      26.70131000       1.05418200       1.02564000       1.15982500
O        2.60734000       3.93577000      25.79789000      -0.11618800      -0.01504700      -0.04983600
O        6.58727000       1.08856000      29.78292000       0.27655000       0.16969600       1.47825800
O        6.14060000       3.93301000      21.81951000       0.05571500       0.32629100      -0.89299200
O        4.37495000       1.77342000      20.78887000       0.62501300      -0.15981200       0.15739000
O        0.70728000       3.86144000      27.91570000      -0.15918700       0.03481500       0.87789200
O        4.60154000       1.75631000      12.84925000       0.97880200       0.56891000      -0.89283900
O        0.14267000       1.26923000      13.88662000       0.11618800       0.01504700       0.04983600
O        2.04273000       1.34356000      11.76881000       0.15918700      -0.03481500      -0.87789200
O        1.39223000       3.90311000      11.85012000      -1.06995400      -0.57649700      -0.40419300
O        4.63481000       3.87374000      15.84949000       0.15372300      -0.39694000      -0.75439900
O        3.65373000       4.40702000      12.98320000      -1.05418200      -1.02564000      -1.15982500
O        5.38730000       3.42296000      10.91026000       0.55863300       0.12916000      -0.64534100
O        2.94956000       4.11644000       9.90158000      -0.27655000      -0.16969600      -1.47825800
O        1.11264000       1.77468000      16.81129000       0.52587300      -0.11299500       0.10254500
O        6.48416000       0.85048000      10.78460000      -1.23153400       0.29551700      -0.71708700
O        0.13668000       4.37641000      16.90856000      -0.64791500      -0.25646400      -0.29395900