60
Lattice="6.786824 0.0 0.0 -3.522092 6.550944 0.0 0.0 -0.0 35.611091" Properties=species:S:1:pos:R:3:forces:R:3 energy=-539.10716169 stress="45.72483 6.64981 9.3366 6.64981 52.14087 -19.89676 9.3366 -19.89676 40.71071" pbc="T T T"
O       -1.58255000       4.08403000      17.93386000      -0.20829600      -0.53026600       3.43195900
O        3.44323000       5.81528000      19.11400000      -0.21496100       3.37159400       0.39373400
O       -0.69321000       6.26149000      16.49709000       0.21496100      -3.37159400      -0.39373400
O        2.78696000       4.01686000      16.97591000       1.77731700      -3.46925600       1.31678700
O        3.48515000       1.50896000      18.63518000      -1.77731700       3.46925600      -1.31678700
O        5.24619000       0.61724000      16.81346000      -1.77669400      -2.13631600       2.97858500
O        1.02591000       4.90858000      18.79763000       1.77669400       2.13631600      -2.97858500
O        4.33257000       3.85714000      20.83775000       0.27743100       0.54210900      -3.11286100
O        1.68218000       6.49939000      21.09439000      -0.02826700      -0.49040300       3.30597800
O        3.44323000       1.67969000      22.27453000      -0.00475100       3.78281300       0.23009000
O       -1.79799000       5.44795000      23.13450000      -2.51984800      -2.31729000       4.45235700
O       -0.69321000       2.12590000      19.65761000       0.19048300      -3.39105100      -0.36904800
O       -0.03694000       3.92431000      21.79571000      -2.16716400       3.37306000      -1.27669600
O        1.72410000       3.03259000      19.97398000      -1.74969200      -2.11908400       2.87575800
O        1.02591000       0.77299000      21.95816000       1.62552400       1.98579000      -3.00737300
O        0.81047000       6.27249000      23.99828000       0.00934800       0.80755100      -1.86958700
O        1.68218000       2.36380000      24.25491000      -2.15537700      -1.19809900       3.49966000
O       -0.07887000       4.09504000      25.43505000      -1.17322000       0.45467200       2.16600500
O        2.57152000       4.54125000      22.81814000       0.63627300      -3.13658600      -0.49487800
O       -0.73514000       2.29662000      23.29696000       1.88713500      -3.47499200       2.87700300
O        3.22779000       6.33966000      24.95623000       1.18571700       0.95312000       2.55095400
O       -0.73514000       6.43221000      20.13643000       1.73208200      -3.41175200       1.01741900
O        1.06783000       1.44179000      17.67723000       0.20829600       0.53026600      -3.43195900
O        4.29064000       3.18834000      25.11868000       1.00564200       2.45853800       1.42928400
O        4.58993000       3.16202000      11.35618000       2.15537700       1.19809900      -3.49966000
O        0.22042000       3.22920000      12.31414000      -1.88713500       3.47499200      -2.87700300
O        1.98146000       2.33748000      10.49241000      -1.00564200      -2.45853800      -1.42928400
O        1.28327000       0.07787000      12.47659000       2.51984800       2.31729000      -4.45235700
O        4.54800000       2.49323000      15.63711000       1.74969200       2.11908400      -2.87575800
O        3.70059000       0.98457000      12.79296000      -0.63627300       3.13658600       0.49487800
O        1.93954000       5.80427000      11.61282000      -0.00934800      -0.80755100       1.86958700
O       -0.47778000       5.73710000      10.65486000      -1.18571700      -0.95312000      -2.55095400
O        1.06783000       5.57738000      14.51670000       0.02826700       0.49040300      -3.30597800
O       -0.43585000       1.43078000      10.17604000       1.17322000      -0.45467200      -2.16600500
O        0.17849000       3.39992000      15.95348000      -0.19048300       3.39105100       0.36904800
O        2.82888000       3.84613000      13.33657000       0.00475100      -3.78281300      -0.23009000
O       -0.47778000       1.60151000      13.81538000       2.16716400      -3.37306000       1.27669600
O        3.48515000       5.64455000      15.47466000      -1.73208200       3.41175200      -1.01741900
O       -1.54063000       4.75283000      13.65293000      -1.62552400      -1.98579000       3.00737300
O        1.93954000       1.66868000      14.77334000      -0.27743100      -0.54210900       3.11286100
Zr       2.87236000       6.40115000      22.85511000      -2.99869300      -0.11470200       0.73051900
Zr      -0.37971000       2.23513000      25.39807000       0.58375100       2.13326900      -4.97091900
Zr      -2.14075000       5.23187000      25.61109000       1.66730000      -4.01859400      -4.29582500
Zr       4.63340000       3.40442000      22.64210000      -2.09259000       0.78539400       0.38924700
Zr      -0.13501000       3.29068000      10.21302000      -0.58375100      -2.13326900       4.97091900
Zr      -0.12235000       5.67561000      12.75598000       2.99869300       0.11470200      -0.73051900
Zr       1.63870000       2.12140000      12.96900000       2.09259000      -0.78539400      -0.38924700
Zr       1.36867000       5.12466000      16.32105000      -1.15467900       0.97382600       0.66151600
Zr      -1.88339000       4.53675000      16.12952000       1.09247800      -0.90668000      -0.75149900
Zr      -0.12235000       1.54002000      15.91650000       1.09205700      -0.47585500      -1.05098400
Zr      -0.39237000       3.98580000      19.69459000      -1.09205700       0.47585500       1.05098400
Zr      -0.37971000       6.37073000      22.23755000       2.74579400      -0.15220200       0.07435300
Zr       1.38134000       2.81651000      22.45057000       1.84459400      -1.14368000       0.54705100
Zr       1.36867000       0.98907000      19.48157000      -1.09247800       0.90668000       0.75149900
Zr       3.12972000       5.70604000      13.37354000      -2.74579400       0.15220200      -0.07435300
Zr       3.12972000       1.57045000      16.53407000      -1.07997000       0.41967500       1.19143400
Zr       3.14239000       3.95537000      19.07702000       1.07997000      -0.41967500      -1.19143400
Zr       4.90343000       0.40116000      19.29004000       1.15467900      -0.97382600      -0.66151600
Zr       4.89076000       2.70930000      13.16052000      -1.84459400       1.14368000      -0.54705100
Zr       1.62603000       0.29395000      10.00000000      -1.66730000       4.01859400       4.29582500
60
Lattice="6.786824 0.0 0.0 -3.522092 6.550944 0.0 0.0 0.0 35.611091" Properties=species:S:1:pos:R:3:forces:R:3 energy=-555.11686011 stress="29.69256 22.40009 25.55107 22.40009 56.25833 18.64688 25.55107 18.64688 49.71863" pbc="T T T"
O       -1.59260000       4.05845000      18.09943000      -0.83095600      -0.02674700       0.23762600
O        3.43286000       5.97793000      19.13300000      -0.93908600       0.09233400       0.07352800
O       -0.68284000       6.09883000      16.47809000       0.93908600      -0.09233400      -0.07352800
O        2.87270000       3.84950000      17.03943000      -0.25293300      -0.41792600      -1.62024800
O        3.39941000       1.67632000      18.57166000       0.25293300       0.41792600       1.62024800
O        5.16048000       0.51418000      16.95715000       0.04321800       1.44976200       0.88223500
O        1.11162000       5.01164000      18.65394000      -0.04321800      -1.44976200      -0.88223500
O        4.34595000       3.88329000      20.68758000       0.64214500      -0.02163900       0.01524000
O        1.68082000       6.47573000      21.25388000      -0.84624400      -0.03908000       0.13099800
O        3.44300000       1.86218000      22.28563000      -0.68795000       0.06813200      -0.00544500
O       -1.91955000       5.33615000      23.34930000       0.66992600       0.79902600       0.82261700
O       -0.68402000       1.96230000      19.63981000       0.61656500      -0.29542300       0.00253700
O       -0.14149000       4.08704000      21.73412000       0.20388800       0.18236800       2.16982300
O        1.63969000       2.93036000      20.11272000       0.20943700       1.54703900       0.64800800
O        1.10433000       0.86879000      21.81307000      -0.46584000      -1.27173000      -0.43097200
O        0.81092000       6.31145000      23.90808000       0.92708900       0.39975100      -1.96138600
O        1.57820000       2.30600000      24.42374000      -0.53743400      -0.00711000       0.23788400
O       -0.13547000       4.11697000      25.53954000      -0.14222800       3.57507600       1.69762100
O        2.60221000       4.38993000      22.79426000       1.01769900      -0.40959900      -0.21881000
O       -0.64410000       2.12898000      23.43575000      -2.61853400      -0.41034800      -6.81531900
O        3.28499000       6.38564000      25.07930000      -0.03915100       1.01176200       1.10049500
O       -0.65158000       6.26762000      20.18551000       0.22242300      -0.33957300      -1.12287400
O        1.07788000       1.46737000      17.51166000       0.83095600       0.02674700      -0.23762600
O        4.33916000       3.30695000      25.18763000      -1.45412600      -3.40427600      -0.94092900
O        4.69391000       3.21982000      11.18735000       0.53743400       0.00711000      -0.23788400
O        0.12938000       3.39684000      12.17534000       2.61853400       0.41034800       6.81531900
O        1.93295000       2.21887000      10.42346000       1.45412600       3.40427600       0.94092900
O        1.40483000       0.18967000      12.26179000      -0.66992600      -0.79902600      -0.82261700
O        4.63241000       2.59546000      15.49838000      -0.20943700      -1.54703900      -0.64800800
O        3.66989000       1.13589000      12.81683000      -1.01769900       0.40959900       0.21881000
O        1.93909000       5.76531000      11.70301000      -0.92708900      -0.39975100       1.96138600
O       -0.53498000       5.69112000      10.53180000       0.03915100      -1.01176200      -1.10049500
O        1.06920000       5.60103000      14.35722000       0.84624400       0.03908000      -0.13099800
O       -0.37925000       1.40885000      10.07155000       0.14222800      -3.57507600      -1.69762100
O        0.16930000       3.56352000      15.97128000      -0.61656500       0.29542300      -0.00253700
O        2.82911000       3.66364000      13.32546000       0.68795000      -0.06813200       0.00544500
O       -0.37323000       1.43878000      13.87698000      -0.20388800      -0.18236800      -2.16982300
O        3.40159000       5.80914000      15.42558000      -0.22242300       0.33957300       1.12287400
O       -1.61905000       4.65703000      13.79802000       0.46584000       1.27173000       0.43097200
O        1.92616000       1.64253000      14.92351000      -0.64214500       0.02163900      -0.01524000
Zr       2.72769000       6.39562000      22.89036000       1.40204900      -0.42025300       2.84454900
Zr      -0.35154000       2.33805000      25.15826000       2.72631700      -3.09940800       5.28558100
Zr      -2.06032000       5.03800000      25.40385000       1.79715900       3.49737200      -0.78164100
Zr       4.53245000       3.44231000      22.66087000       1.25053900       0.10756400      -1.64860000
Zr      -0.16318000       3.18777000      10.45283000      -2.72631700       3.09940800      -5.28558100
Zr       0.02232000       5.68114000      12.72073000      -1.40204900       0.42025300      -2.84454900
Zr       1.73965000       2.08351000      12.95022000      -1.25053900      -0.10756400       1.64860000
Zr       1.31297000       5.17164000      16.35296000       1.31870700      -0.74815100       0.13943300
Zr      -1.83069000       4.49301000      16.09327000      -1.32271200       0.52672900       0.19987800
Zr      -0.06966000       1.51706000      15.86580000      -1.27074000       0.20366400       0.57323500
Zr      -0.44506000       4.00876000      19.74529000       1.27074000      -0.20366400      -0.57323500
Zr      -0.24724000       6.36338000      22.24114000      -1.77788600      -0.29993500       1.29255300
Zr       1.47033000       2.76134000      22.47696000      -1.56114800      -0.24952900       1.16709900
Zr       1.31597000       1.03281000      19.51783000       1.32271200      -0.52672900      -0.19987800
Zr       2.99725000       5.71338000      13.36996000       1.77788600       0.29993500      -1.29255300
Zr       3.07762000       1.59069000      16.59154000       1.16543300      -0.30618100      -0.68599400
Zr       3.19449000       3.93513000      19.01955000      -1.16543300       0.30618100       0.68599400
Zr       4.95914000       0.35418000      19.25813000      -1.31870700       0.74815100      -0.13943300
Zr       4.80178000       2.76448000      13.13413000       1.56114800       0.24952900      -1.16709900
Zr       1.54560000       0.48782000      10.20724000      -1.79715900      -3.49737200       0.78164100
60
Lattice="6.786824 0.0 0.0 -3.522092 6.550944 0.0 0.0 0.0 35.611091" Properties=species:S:1:pos:R:3:forces:R:3 energy=-555.66969916 stress="23.55544 18.90902 22.58556 18.90902 46.71116 13.15949 22.58556 13.15949 37.4683" pbc="T T T"
O       -1.59108000       4.06232000      18.07439000      -0.74684600      -0.08825200       0.67809100
O        3.43442000       5.95334000      19.13013000      -0.83894300       0.55086800       0.12630700
O       -0.68441000       6.12343000      16.48097000       0.83894300      -0.55086800      -0.12630700
O        2.85973000       3.87480000      17.02983000      -0.07820300      -0.76783600      -1.19392200
O        3.41237000       1.65102000      18.58126000       0.07820300       0.76783600       1.19392200
O        5.17344000       0.52976000      16.93542000      -0.11092100       0.95327800       1.09113600
O        1.09866000       4.99606000      18.67567000       0.11092100      -0.95327800      -1.09113600
O        4.34393000       3.87934000      20.71029000       0.61697300       0.06163100      -0.40101500
O        1.68102000       6.47931000      21.22976000      -0.68881900      -0.11237500       0.67833200
O        3.44303000       1.83458000      22.28395000      -0.59359700       0.74219900       0.03284200
O       -1.90117000       5.35306000      23.31682000       0.33278800       0.49240700       1.66013800
O       -0.68541000       1.98704000      19.64250000       0.56938100      -0.71551700      -0.05638300
O       -0.12568000       4.06243000      21.74343000       0.00941900       0.46802700       1.68416000
O        1.65246000       2.94582000      20.09174000       0.04092400       1.04719000       0.87182200
O        1.09247000       0.85430000      21.83501000      -0.32631700      -0.90236800      -0.67122200
O        0.81086000       6.30556000      23.92172000       0.78327000       0.46706300      -2.16830900
O        1.59392000       2.31474000      24.39821000      -1.02542900      -0.20914800       0.84022600
O       -0.12691000       4.11366000      25.52374000      -0.32872100       3.22719600       1.83233900
O        2.59757000       4.41281000      22.79787000       1.01921500      -0.87220100      -0.24021800
O       -0.65786000       2.15433000      23.41476000      -1.93469900      -0.45050100      -4.31493500
O        3.27634000       6.37869000      25.06069000       0.19568100       1.00110000       1.41999500
O       -0.66421000       6.29251000      20.17809000       0.32581800      -0.69980100      -0.87881200
O        1.07636000       1.46350000      17.53670000       0.74684600       0.08825200      -0.67809100
O        4.33182000       3.28901000      25.17721000      -0.87527500      -1.61360600      -0.48047300
O        4.67818000       3.21108000      11.21288000       1.02542900       0.20914800      -0.84022600
O        0.14314000       3.37149000      12.19633000       1.93469900       0.45050100       4.31493500
O        1.94028000       2.23681000      10.43388000       0.87527500       1.61360600       0.48047300
O        1.38645000       0.17276000      12.29427000      -0.33278800      -0.49240700      -1.66013800
O        4.61965000       2.58000000      15.51935000      -0.04092400      -1.04719000      -0.87182200
O        3.67453000       1.11301000      12.81322000      -1.01921500       0.87220100       0.24021800
O        1.93916000       5.77121000      11.68937000      -0.78327000      -0.46706300       2.16830900
O       -0.52633000       5.69807000      10.55040000      -0.19568100      -1.00110000      -1.41999500
O        1.06899000       5.59746000      14.38133000       0.68881900       0.11237500      -0.67833200
O       -0.38781000       1.41216000      10.08735000       0.32872100      -3.22719600      -1.83233900
O        0.17069000       3.53878000      15.96859000      -0.56938100       0.71551700       0.05638300
O        2.82907000       3.69124000      13.32714000       0.59359700      -0.74219900      -0.03284200
O       -0.38904000       1.46339000      13.86766000      -0.00941900      -0.46802700      -1.68416000
O        3.41422000       5.78425000      15.43300000      -0.32581800       0.69980100       0.87881200
O       -1.60719000       4.67152000      13.77608000       0.32631700       0.90236800       0.67122200
O        1.92818000       1.64648000      14.90080000      -0.61697300      -0.06163100       0.40101500
Zr       2.74957000       6.39645000      22.88503000       0.63245700      -0.35381000       2.18190500
Zr      -0.35580000       2.32249000      25.19452000       2.38331200      -2.54593000       2.39035400
Zr      -2.07248000       5.06731000      25.43519000       1.69862600       1.39779600      -1.99388400
Zr       4.54772000       3.43658000      22.65803000       0.79436600      -0.03941400      -1.46765600
Zr      -0.15892000       3.20333000      10.41657000      -2.38331200       2.54593000      -2.39035400
Zr       0.00044000       5.68031000      12.72606000      -0.63245700       0.35381000      -2.18190500
Zr       1.72439000       2.08924000      12.95306000      -0.79436600       0.03941400       1.46765600
Zr       1.32139000       5.16453000      16.34814000       1.06488500      -0.57598000       0.15796000
Zr      -1.83866000       4.49963000      16.09875000      -1.05343200       0.38787900       0.13064600
Zr      -0.07763000       1.52053000      15.87347000      -1.01272500       0.15600100       0.41185100
Zr      -0.43709000       4.00528000      19.73763000       1.01272500      -0.15600100      -0.41185100
Zr      -0.26727000       6.36449000      22.24059000      -1.08069900      -0.27967300       1.47880600
Zr       1.45687000       2.76968000      22.47297000      -1.15846500      -0.20797200       1.00624800
Zr       1.32394000       1.02619000      19.51234000       1.05343200      -0.38787900      -0.13064600
Zr       3.01728000       5.71227000      13.37050000       1.08069900       0.27967300      -1.47880600
Zr       3.08550000       1.58763000      16.58285000       0.94264000      -0.24085800      -0.46432500
Zr       3.18661000       3.93819000      19.02824000      -0.94264000       0.24085800       0.46432500
Zr       4.95071000       0.36129000      19.26296000      -1.06488500       0.57598000      -0.15796000
Zr       4.81523000       2.75614000      13.13812000       1.15846500       0.20797200      -1.00624800
Zr       1.55776000       0.45850000      10.17590000      -1.69862600      -1.39779600       1.99388400
60
Lattice="6.786824 0.0 0.0 -3.522092 6.550944 0.0 0.0 0.0 35.611091" Properties=species:S:1:pos:R:3:forces:R:3 energy=-560.15762548 stress="25.54555 13.70637 10.63823 13.70637 18.9571 5.16373 10.63823 5.16373 40.25352" pbc="T T T"
O       -1.62891000       4.05083000      18.15377000      -0.62576800       0.07651500      -0.46050700
O        3.39219000       6.02592000      19.14150000      -0.55355100      -0.51555600      -0.08520300
O       -0.64218000       6.05085000      16.46959000       0.55355100       0.51555600       0.08520300
O        2.88075000       3.79072000      16.99225000       0.04972700      -0.12799300      -0.98719000
O        3.39135000       1.73510000      18.61884000      -0.04972700       0.12799300       0.98719000
O        5.14359000       0.54470000      17.02782000      -0.00246200       1.12664600       0.36821300
O        1.12852000       4.98112000      18.58327000       0.00246200      -1.12664600      -0.36821300
O        4.37664000       3.88975000      20.64831000       0.51800000       0.05087200      -0.04251300
O        1.64840000       6.46724000      21.30739000      -0.39012900      -0.04695300       0.31868800
O        3.41519000       1.92182000      22.28868000      -1.29489800      -1.30862600       0.04957000
O       -1.92059000       5.34392000      23.45630000       0.80242800       1.33039500      -3.29034900
O       -0.65613000       1.90649000      19.63474000       0.65196700       0.65785100       0.09565500
O       -0.15533000       4.13116000      21.80450000       0.23466900       0.17057200       1.34099000
O        1.63008000       2.96539000      20.17245000      -0.04787700       1.00265900       0.44623000
O        1.09977000       0.83965000      21.76186000       0.01611600      -0.97693400       0.54547400
O        0.84763000       6.33862000      23.79432000       1.14958000       0.05993000       1.18315000
O        1.51602000       2.28832000      24.48611000       0.03797100      -0.12050000       0.53033800
O       -0.15857000       4.27095000      25.63954000       0.38293400      -1.06586300       0.79520200
O        2.65409000       4.32846000      22.77976000       0.16938700       0.45567700       0.21496900
O       -0.72217000       2.08501000      23.25284000       0.24177400      -0.28215500       1.04646500
O        3.30196000       6.43876000      25.16254000      -0.62992300       2.16081100       0.84333900
O       -0.62492000       6.21240000      20.15110000       0.08895000      -0.00018600      -0.66312600
O        1.11419000       1.47499000      17.45733000       0.62576800      -0.07651500       0.46050700
O        4.30483000       3.24765000      25.17457000       0.32787100      -0.66943700      -0.72976600
O        4.75608000       3.23750000      11.12498000      -0.03797100       0.12050000      -0.53033800
O        0.20745000       3.44081000      12.35825000      -0.24177400       0.28215500      -1.04646500
O        1.96727000       2.27816000      10.43652000      -0.32787100       0.66943700       0.72976600
O        1.40587000       0.18190000      12.15479000      -0.80242800      -1.33039500       3.29034900
O        4.64203000       2.56043000      15.43864000       0.04787700      -1.00265900      -0.44623000
O        3.61802000       1.19736000      12.83133000      -0.16938700      -0.45567700      -0.21496900
O        1.90238000       5.73814000      11.81677000      -1.14958000      -0.05993000      -1.18315000
O       -0.55194000       5.63800000      10.44856000       0.62992300      -2.16081100      -0.84333900
O        1.10161000       5.60952000      14.30370000       0.39012900       0.04695300      -0.31868800
O       -0.35615000       1.25487000       9.97155000      -0.38293400       1.06586300      -0.79520200
O        0.14141000       3.61933000      15.97635000      -0.65196700      -0.65785100      -0.09565500
O        2.85691000       3.60400000      13.32241000       1.29489800       1.30862600      -0.04957000
O       -0.35939000       1.39466000      13.80660000      -0.23466900      -0.17057200      -1.34099000
O        3.37493000       5.86436000      15.45999000      -0.08895000       0.00018600       0.66312600
O       -1.61449000       4.68616000      13.84923000      -0.01611600       0.97693400      -0.54547400
O        1.89546000       1.63607000      14.96278000      -0.51800000      -0.05087200       0.04251300
Zr       2.73752000       6.37831000      22.99725000       0.38655000      -0.22020700      -0.24409200
Zr      -0.23620000       2.23300000      25.23734000      -0.73316800       1.11692200      -0.51887200
Zr      -1.96986000       5.07692000      25.28226000       0.54824500      -1.11311800       3.87433300
Zr       4.55583000       3.44564000      22.59478000       1.14458500      -0.32102600      -0.75305000
Zr      -0.27852000       3.29282000      10.37375000       0.73316800      -1.11692200       0.51887200
Zr       0.01249000       5.69845000      12.61384000      -0.38655000       0.22020700       0.24409200
Zr       1.71628000       2.08018000      13.01632000      -1.14458500       0.32102600       0.75305000
Zr       1.35518000       5.15111000      16.36471000       0.56915000      -0.10898200      -0.87443600
Zr      -1.87277000       4.50519000      16.09443000      -0.51434900       0.35605800       0.26046500
Zr      -0.10985000       1.52123000      15.87814000      -0.74728700       0.38973100       0.09961000
Zr      -0.40487000       4.00459000      19.73295000       0.74728700      -0.38973100      -0.09961000
Zr      -0.27971000       6.34930000      22.31081000      -1.39207000       0.42631500      -2.35951200
Zr       1.42828000       2.74408000      22.52764000      -1.16848300       0.05388000      -0.94230100
Zr       1.35805000       1.02063000      19.51666000       0.51434900      -0.35605800      -0.26046500
Zr       3.02972000       5.72747000      13.30028000       1.39207000      -0.42631500       2.35951200
Zr       3.11460000       1.58219000      16.57767000       0.62428600      -0.66229600      -0.30065400
Zr       3.15750000       3.94363000      19.03342000      -0.62428600       0.66229600       0.30065400
Zr       4.91693000       0.37471000      19.24638000      -0.56915000       0.10898200       0.87443600
Zr       4.84382000       2.78174000      13.08345000       1.16848300      -0.05388000       0.94230100
Zr       1.45514000       0.44890000      10.32883000      -0.54824500       1.11311800      -3.87433300
60
Lattice="6.786824 0.0 0.0 -3.522092 6.550944 0.0 0.0 0.0 35.611091" Properties=species:S:1:pos:R:3:forces:R:3 energy=-560.37261385 stress="23.50428 14.41317 12.6871 14.41317 21.84682 6.40269 12.6871 6.40269 35.69446" pbc="T T T"
O       -1.62229000       4.05284000      18.13986000      -0.65707500       0.05150300      -0.26465400
O        3.39959000       6.01320000      19.13951000      -0.61306500      -0.32900000      -0.04527600
O       -0.64957000       6.06356000      16.47158000       0.61306500       0.32900000       0.04527600
O        2.87707000       3.80544000      16.99883000       0.03107900      -0.25399900      -1.02327500
O        3.39504000       1.72038000      18.61226000      -0.03107900       0.25399900       1.02327500
O        5.14882000       0.54209000      17.01164000      -0.02165200       1.09674000       0.51149700
O        1.12329000       4.98373000      18.59945000       0.02165200      -1.09674000      -0.51149700
O        4.37091000       3.88792000      20.65916000       0.54214200       0.05537800      -0.11917100
O        1.65412000       6.46935000      21.29380000      -0.44089900      -0.04892600       0.38843300
O        3.42007000       1.90655000      22.28785000      -1.17319900      -0.93779200       0.05636500
O       -1.91719000       5.34552000      23.43187000       0.73217100       1.10672600      -1.79181900
O       -0.66126000       1.92059000      19.63610000       0.64199900       0.42090200       0.06674000
O       -0.15014000       4.11912000      21.79380000       0.19215000       0.22556700       1.38683800
O        1.63400000       2.96197000      20.15831000      -0.03515100       1.01072600       0.52460900
O        1.09850000       0.84222000      21.77467000      -0.05090100      -0.97739800       0.32965400
O        0.84119000       6.33283000      23.81663000       1.07434900       0.12074200       0.45143000
O        1.52967000       2.29294000      24.47072000      -0.36796100      -0.16006200       0.70870200
O       -0.15303000       4.24340000      25.61926000       0.16347300      -0.63470800       0.93537600
O        2.64419000       4.34323000      22.78293000       0.34834700       0.19393500       0.12592800
O       -0.71091000       2.09715000      23.28120000      -0.10354400      -0.26984000       0.48177600
O        3.29747000       6.42824000      25.14470000      -0.53071600       2.01525500       0.96711200
O       -0.63180000       6.22643000      20.15583000       0.13656400      -0.12689200      -0.68960500
O        1.10757000       1.47298000      17.47123000       0.65707500      -0.05150300       0.26465400
O        4.30956000       3.25490000      25.17503000       0.13335600      -0.82762600      -0.65436200
O        4.74244000       3.23287000      11.14038000       0.36796100       0.16006200      -0.70870200
O        0.19619000       3.42867000      12.32990000       0.10354400       0.26984000      -0.48177600
O        1.96254000       2.27092000      10.43606000      -0.13335600       0.82762600       0.65436200
O        1.40247000       0.18030000      12.17922000      -0.73217100      -1.10672600       1.79181900
O        4.63811000       2.56385000      15.45278000       0.03515100      -1.01072600      -0.52460900
O        3.62791000       1.18259000      12.82816000      -0.34834700      -0.19393500      -0.12592800
O        1.90882000       5.74393000      11.79446000      -1.07434900      -0.12074200      -0.45143000
O       -0.54746000       5.64852000      10.46639000       0.53071600      -2.01525500      -0.96711200
O        1.09590000       5.60741000      14.31730000       0.44089900       0.04892600      -0.38843300
O       -0.36169000       1.28242000       9.99183000      -0.16347300       0.63470800      -0.93537600