60
Lattice="7.319381 0.0 0.0 3.110628 6.756033 0.0 0.0 0.0 33.818147" Properties=species:S:1:pos:R:3:forces:R:3 energy=-551.24688084 stress="66.76114 7.91042 10.01919 7.91042 34.88621 5.64195 10.01919 5.64195 68.46696" pbc="T T T"
O        1.93359000       2.06119000      18.13494000       0.56984300       3.18954900       1.27381200
O        8.48898000       3.99437000      16.35439000      -2.95108300       0.94507600      -1.45725500
O        6.90744000       0.77879000      17.46375000       2.95108300      -0.94507600       1.45725500
O        3.07193000       1.91811000      15.80056000       2.30517200       0.08147900       3.36596900
O        5.00511000       2.85505000      18.01758000      -2.30517200      -0.08147900      -3.36596900
O        4.42693000       4.90398000      16.37968000       2.71561700       3.01054800       0.45806200
O        6.76073000       6.62521000      17.43846000      -2.71561700      -3.01054800      -0.45806200
O        2.52548000       5.01781000      18.52481000      -0.55291300      -3.27167900      -1.27544300
O        5.63500000       4.36702000      20.97654000       0.54225500       2.67423700       0.54675900
O        4.87101000       6.30020000      19.19600000      -2.92959600       0.99212000      -1.48204300
O        1.39974000       2.75962000      22.06289000       2.56205500       3.04891400       0.90263100
O        3.28947000       3.08463000      20.30536000       2.93735300      -1.28498600       1.93319400
O        8.70652000       5.16089000      20.85919000      -2.14642600      -0.02202600      -3.86430700
O        5.01771000       0.45379000      19.22129000       2.71441300       3.06769900       0.46329800
O        7.35151000       2.17501000      20.28007000      -2.67358700      -3.05716700      -0.23622500
O        3.11626000       0.56761000      21.36641000      -0.04593300      -1.55515700      -1.31022600
O        9.33641000       6.67286000      23.81815000       0.84885500       1.66743000      -0.30373900
O        5.46179000       1.85001000      22.03760000      -3.21630700       1.50689000      -0.49076000
O        6.99088000       5.39046000      23.14696000       1.54550200      -1.95113800       0.75957800
O        3.15536000       6.52978000      21.48377000       2.13367600       1.03835200       2.96648100
O        1.97792000       0.71069000      23.70079000      -0.06752900       1.28583500      -1.55075700
O        6.77333000       4.22394000      18.64217000       2.31432600       0.05765000       3.32362600
O        6.14345000       2.71197000      15.68321000      -0.56984300      -3.18954900      -1.27381200
O        3.73354000       4.48085000      23.12167000      -1.81333200      -3.62972200       0.74580200
O        9.17064000       4.85633000      10.00000000      -0.84885500      -1.66743000       0.30373900
O        8.03230000       4.99941000      12.33438000      -2.13367600      -1.03835200      -2.96648100
O        4.34350000       0.29231000      10.69648000       1.81333200       3.62972200      -0.74580200
O        6.67729000       2.01353000      11.75526000      -2.56205500      -3.04891400      -0.90263100
O        3.05932000       4.31937000      14.59686000      -2.71441300      -3.06769900      -0.46329800
O        4.19679000       6.13872000      10.67119000      -1.54550200       1.95113800      -0.75957800
O        4.96078000       4.20555000      12.45174000       0.04593300       1.55515700       1.31022600
O        6.09912000       4.06246000      10.11736000       0.06752900      -1.28583500       1.55075700
O        2.44204000       0.40613000      12.84160000      -0.54225500      -2.67423700      -0.54675900
O        2.61525000       2.92315000      11.78055000       3.21630700      -1.50689000       0.49076000
O        4.78757000       1.68853000      13.51279000      -2.93735300       1.28498600      -1.93319400
O        6.31666000       5.22899000      14.62215000       2.92959600      -0.99212000       1.48204300
O        9.80053000       6.36830000      12.95896000       2.14642600       0.02202600       3.86430700
O        1.30370000       0.54921000      15.17598000      -2.31432600      -0.05765000      -3.32362600
O        8.04491000       2.59814000      13.53808000       2.67358700       3.05716700       0.23622500
O        8.66219000       6.51138000      15.29334000       0.55291300       3.27167900       1.27544300
Zr       5.19205000       5.62287000      22.63576000       0.85847000       3.05215700       0.34706000
Zr       7.26061000       1.61760000      22.54880000       0.33037600      -4.99913200       1.53065200
Zr       9.06540000       5.15103000      22.74033000      -0.08279200       1.49407700       3.04689000
Zr       3.38726000       2.08944000      22.44423000      -1.29440900      -0.89106900       1.19632700
Zr       8.13580000       3.15555000      11.26934000      -0.33037600       4.99913200      -1.53065200
Zr       5.99561000       5.90632000      11.18239000      -0.85847000      -3.05215700      -0.34706000
Zr       4.68977000       2.68371000      11.37391000       1.29440900       0.89106900      -1.19632700
Zr       6.41445000       4.23380000      16.76103000      -0.30710800       1.20068100      -1.12382800
Zr       8.39118000       4.98955000      14.21552000       0.34267900      -1.09272900       1.00661700
Zr       6.58639000       1.45612000      14.02399000       0.05470100      -1.76809800       0.88469700
Zr       8.81002000       3.31703000      19.79415000      -0.05470100       1.76809800      -0.88469700
Zr       6.66983000       6.06780000      19.70720000      -0.09883900      -1.68230100       0.90912000
Zr       5.36399000       2.84519000      19.89872000       0.46197300      -0.75969300       1.09977100
Zr      10.11586000       6.53964000      19.60263000      -0.34267900       1.09272900      -1.00661700
Zr       4.51783000       5.46139000      14.11095000       0.09883900       1.68230100      -0.90912000
Zr       5.10861000       1.01120000      16.95255000       0.15961500       1.42346200      -0.76309600
Zr       2.96842000       3.76196000      16.86560000      -0.15961500      -1.42346200       0.76309600
Zr       1.66258000       0.53935000      17.05712000       0.30710800      -1.20068100       1.12382800
Zr       2.71304000       1.92796000      13.91942000      -0.46197300       0.75969300      -1.09977100
Zr       9.44164000       6.37816000      11.07782000       0.08279200      -1.49407700      -3.04689000
60
Lattice="7.319381 0.0 0.0 3.110628 6.756033 0.0 0.0 0.0 33.818147" Properties=species:S:1:pos:R:3:forces:R:3 energy=-562.55108983 stress="17.48479 -15.81074 -3.91526 -15.81074 35.86937 25.11645 -3.91526 25.11645 28.79373" pbc="T T T"
O        1.96108000       2.21506000      18.19639000       0.32935400       0.35039700      -0.72071200
O        8.34661000       4.03996000      16.28409000       0.19159000       0.40187900      -0.84064000
O        7.04981000       0.73320000      17.53406000      -0.19159000      -0.40187900       0.84064000
O        3.18313000       1.92204000      15.96295000       0.37002900      -1.61010400      -0.48342800
O        4.89390000       2.85112000      17.85520000      -0.37002900       1.61010400       0.48342800
O        4.55794000       5.04922000      16.40178000      -1.39643300       1.02757100      -0.27141500
O        6.62972000       6.47997000      17.41637000       1.39643300      -1.02757100       0.27141500
O        2.49880000       4.85997000      18.46328000      -0.31785100      -0.17380100       0.64283300
O        5.66116000       4.49604000      21.00292000       0.18257800       1.85729100       0.27316100
O        4.72968000       6.34807000      19.12450000       0.18674000       0.31604900      -0.49193100
O        1.52334000       2.90671000      22.10643000      -1.46022600       0.02045600       0.80377700
O        3.43117000       3.02264000      20.39862000      -0.45361500      -0.51541300       0.84667600
O        8.60297000       5.15983000      20.67276000      -0.17378400       2.25920800       1.40594900
O        5.14866000       0.60178000      19.24364000      -1.30282000       0.75333300      -0.15814200
O        7.22253000       2.02752000      20.26867000       1.30031800      -1.17042600       0.30829200
O        3.11404000       0.49259000      21.30320000      -0.73530400      -1.38545300       0.36573000
O        9.37736000       6.75330000      23.80349000       0.89425500       3.36271300       2.30060300
O        5.30663000       1.92270000      22.01392000       1.04055700       0.04271600       0.85450000
O        7.06543000       5.29634000      23.18360000      -0.16284900      -0.53532600       0.99016100
O        3.25830000       6.57987000      21.62688000       0.97019900      -2.38522300      -0.83614600
O        1.97466000       0.77272000      23.62598000      -0.60983300       0.77700700       0.03850000
O        6.88498000       4.22672000      18.80251000       0.50089500      -1.40043500      -0.65444800
O        6.11596000       2.55810000      15.62175000      -0.32935400      -0.35039700       0.72071200
O        3.64606000       4.30574000      23.15765000       0.14116700      -0.06102700       0.38813300
O        9.12969000       4.77588000      10.01465000      -0.89425500      -3.36271300      -2.30060300
O        7.92937000       4.94932000      12.19127000      -0.97019900       2.38522300       0.83614600
O        4.43098000       0.46741000      10.66050000      -0.14116700       0.06102700      -0.38813300
O        6.55369000       1.86644000      11.71171000       1.46022600      -0.02045600      -0.80377700
O        2.92837000       4.17137000      14.57451000       1.30282000      -0.75333300       0.15814200
O        4.12223000       6.23285000      10.63454000       0.16284900       0.53532600      -0.99016100
O        4.96299000       4.28057000      12.51494000       0.73530400       1.38545300      -0.36573000
O        6.10237000       4.00043000      10.19217000       0.60983300      -0.77700700      -0.03850000
O        2.41588000       0.27712000      12.81523000      -0.18257800      -1.85729100      -0.27316100
O        2.77041000       2.85045000      11.80422000      -1.04055700      -0.04271600      -0.85450000
O        4.64586000       1.75052000      13.41953000       0.45361500       0.51541300      -0.84667600
O        6.45799000       5.18112000      14.69365000      -0.18674000      -0.31604900       0.49193100
O        9.90407000       6.36936000      13.14539000       0.17378400      -2.25920800      -1.40594900
O        1.19205000       0.54643000      15.01564000      -0.50089500       1.40043500       0.65444800
O        8.17389000       2.74563000      13.54948000      -1.30031800       1.17042600      -0.30829200
O        8.68886000       6.66922000      15.35487000       0.31785100       0.17380100      -0.64283300
Zr       5.23347000       5.77012000      22.65250000       0.55937700      -2.69687200      -0.08020900
Zr       7.27655000       1.37643000      22.62265000      -0.66761700       3.35395200       0.03116500
Zr       9.06141000       5.22311000      22.88732000      -0.25190500      -3.04122400      -3.29430800
Zr       3.32482000       2.04645000      22.50195000      -0.13560400       1.81242500      -0.60336700
Zr       8.11987000       3.39673000      11.19550000       0.66761700      -3.35395200      -0.03116500
Zr       5.95420000       5.75907000      11.16565000      -0.55937700       2.69687200       0.08020900
Zr       4.75222000       2.72670000      11.31620000       0.13560400      -1.81242500       0.60336700
Zr       6.39964000       4.29172000      16.70681000      -0.05736700      -1.11614300       0.92512800
Zr       8.40772000       4.93683000      14.26408000       0.37047600       0.78756100       0.21874900
Zr       6.58903000       1.37082000      14.06667000      -0.41817500       1.66697600      -1.30835400
Zr       8.80738000       3.40233000      19.75147000       0.41817500      -1.66697600       1.30835400
Zr       6.66506000       5.98664000      19.75106000       0.12994600       0.91911700      -0.95026400
Zr       5.38628000       2.80854000      19.95178000      -0.68898100       0.70812500      -0.60551400
Zr      10.09933000       6.59235000      19.55407000      -0.37047600      -0.78756100      -0.21874900
Zr       4.52260000       5.54255000      14.06709000      -0.12994600      -0.91911700       0.95026400
Zr       5.11631000       1.07987000      16.91574000      -0.27391400      -0.84526500       0.93818800
Zr       2.96072000       3.69329000      16.90241000       0.27391400       0.84526500      -0.93818800
Zr       1.67740000       0.48143000      17.11134000       0.05736700       1.11614300      -0.92512800
Zr       2.69076000       1.96461000      13.86637000       0.68898100      -0.70812500       0.60551400
Zr       9.44564000       6.30608000      10.93083000       0.25190500       3.04122400       3.29430800
60
Lattice="7.319381 0.0 0.0 3.110628 6.756033 0.0 0.0 0.0 33.818147" Properties=species:S:1:pos:R:3:forces:R:3 energy=-563.01678634 stress="15.94864 -13.92678 -1.80693 -13.92678 27.50025 20.64016 -1.80693 20.64016 28.22916" pbc="T T T"
O        1.95597000       2.18650000      18.18499000       0.36666200       0.82851300      -0.39544100
O        8.37304000       4.03150000      16.29714000      -0.34027100       0.49875300      -0.94247400
O        7.02338000       0.74166000      17.52101000       0.34027100      -0.49875300       0.94247400
O        3.16249000       1.92131000      15.93280000       0.67776400      -1.25815100       0.04757200
O        4.91455000       2.85185000      17.88534000      -0.67776400       1.25815100      -0.04757200
O        4.53362000       5.02226000      16.39768000      -0.75739700       1.24405600      -0.08281600
O        6.65404000       6.50693000      17.42047000       0.75739700      -1.24405600       0.08281600
O        2.50375000       4.88927000      18.47470000      -0.35050900      -0.70453800       0.33197700
O        5.65630000       4.47209000      20.99802000       0.27450900       1.95528000       0.25874600
O        4.75591000       6.33918000      19.13777000      -0.32498900       0.43993700      -0.66110000
O        1.50040000       2.87941000      22.09835000      -1.04438100       0.32641400       0.92747100
O        3.40487000       3.03414000      20.38131000       0.03151800      -0.64262700       1.01216900
O        8.62219000       5.16002000      20.70737000      -0.44154600       1.76628900       0.76283800
O        5.12436000       0.57431000      19.23949000      -0.70391100       1.02018500       0.02021000
O        7.24647000       2.05490000      20.27079000       0.71457700      -1.35957900       0.16201100
O        3.11445000       0.50651000      21.31494000      -0.59862100      -1.49040300       0.00470400
O        9.36975000       6.73837000      23.80621000       0.97243400       3.08992100       1.70715200
O        5.33543000       1.90921000      22.01832000       0.50470800       0.30764200       0.69306100
O        7.05159000       5.31381000      23.17680000       0.10582200      -0.77706800       0.93405500
O        3.23919000       6.57057000      21.60032000       1.05028900      -1.37856600      -0.02909300
O        1.97527000       0.76121000      23.63986000      -0.47765400       0.86832900      -0.33788200
O        6.86426000       4.22621000      18.77274000       0.78672800      -1.09528600      -0.10411600
O        6.12106000       2.58666000      15.63316000      -0.36666200      -0.82851300       0.39544100
O        3.66230000       4.33825000      23.15097000       0.01584100      -0.56402800       0.32564300
O        9.13729000       4.79082000      10.01193000      -0.97243400      -3.08992100      -1.70715200
O        7.94848000       4.95861000      12.21783000      -1.05028900       1.37856600       0.02909300
O        4.41474000       0.43491000      10.66718000      -0.01584100       0.56402800      -0.32564300
O        6.57664000       1.89375000      11.71980000       1.04438100      -0.32641400      -0.92747100
O        2.95268000       4.19885000      14.57866000       0.70391100      -1.02018500      -0.02021000
O        4.13607000       6.21538000      10.64134000      -0.10582200       0.77706800      -0.93405500
O        4.96258000       4.26664000      12.50321000       0.59862100       1.49040300      -0.00470400
O        6.10177000       4.01195000      10.17828000       0.47765400      -0.86832900       0.33788200
O        2.42074000       0.30107000      12.82012000      -0.27450900      -1.95528000      -0.25874600
O        2.74161000       2.86395000      11.79983000      -0.50470800      -0.30764200      -0.69306100
O        4.67217000       1.73901000      13.43684000      -0.03151800       0.64262700      -1.01216900
O        6.43175000       5.19001000      14.68038000       0.32498900      -0.43993700       0.66110000
O        9.88485000       6.36917000      13.11078000       0.44154600      -1.76628900      -0.76283800
O        1.21278000       0.54695000      15.04540000      -0.78672800       1.09528600       0.10411600
O        8.14994000       2.71825000      13.54736000      -0.71457700       1.35957900      -0.16201100
O        8.68391000       6.63992000      15.34345000       0.35050900       0.70453800      -0.33197700
Zr       5.22578000       5.74278000      22.64939000       0.34280800      -1.75563800       0.17112300
Zr       7.27359000       1.42120000      22.60894000      -0.47587400       1.46866300      -0.13018900
Zr       9.06215000       5.20973000      22.86003000      -0.23715900      -2.01345200      -2.56227600
Zr       3.33641000       2.05443000      22.49123000      -0.41993500       1.25073400      -0.26142400
Zr       8.12283000       3.35196000      11.20921000       0.47587400      -1.46866300       0.13018900
Zr       5.96189000       5.78640000      11.16876000      -0.34280800       1.75563800      -0.17112300
Zr       4.74063000       2.71872000      11.32691000       0.41993500      -1.25073400       0.26142400
Zr       6.40239000       4.28097000      16.71687000      -0.08215700      -0.82792000       0.64840400
Zr       8.40465000       4.94662000      14.25507000       0.35688300       0.61817600       0.31766700
Zr       6.58854000       1.38666000      14.05875000      -0.35013800       1.12776500      -1.02385400
Zr       8.80787000       3.38650000      19.75940000       0.35013800      -1.12776500       1.02385400
Zr       6.66595000       6.00170000      19.74292000       0.12402200       0.59508200      -0.73464300
Zr       5.38214000       2.81535000      19.94193000      -0.47380400       0.53381000      -0.45647900
Zr      10.10240000       6.58257000      19.56308000      -0.35688300      -0.61817600      -0.31766700
Zr       4.52172000       5.52749000      14.07523000      -0.12402200      -0.59508200       0.73464300
Zr       5.11488000       1.06712000      16.92257000      -0.20008900      -0.57604100       0.70612400
Zr       2.96215000       3.70603000      16.89558000       0.20008900       0.57604100      -0.70612400
Zr       1.67465000       0.49218000      17.10127000       0.08215700       0.82792000      -0.64840400
Zr       2.69489000       1.95781000      13.87622000       0.47380400      -0.53381000       0.45647900
Zr       9.44490000       6.31946000      10.95812000       0.23715900       2.01345200       2.56227600
60
Lattice="7.319381 0.0 0.0 3.110628 6.756033 0.0 0.0 0.0 33.818147" Properties=species:S:1:pos:R:3:forces:R:3 energy=-566.37552812 stress="7.27461 -15.06625 1.72508 -15.06625 2.77255 6.30468 1.72508 6.30468 12.90005" pbc="T T T"
O        1.97870000       2.25684000      18.17934000       0.24117300       0.14404800      -0.51060100
O        8.32775000       4.06410000      16.23880000       0.65791200       0.06047700      -0.22181300
O        7.06866000       0.70905000      17.57934000      -0.65791200      -0.06047700       0.22181300
O        3.21700000       1.86368000      15.96864000       0.21710400      -0.89923900      -0.29094200
O        4.86004000       2.90948000      17.84951000      -0.21710400       0.89923900       0.29094200
O        4.52557000       5.11012000      16.39841000      -0.71926500       0.49075500      -0.15985700
O        6.66210000       6.41907000      17.41974000       0.71926500      -0.49075500       0.15985700
O        2.48195000       4.82386000      18.47738000      -0.32224200      -0.29168900       0.51544100
O        5.67447000       4.58963000      21.01551000       0.06306400      -0.26190200      -1.08129900
O        4.71155000       6.36953000      19.09226000       0.56360300       0.16868600      -0.63146000
O        1.47748000       2.92503000      22.15045000      -1.00855000       1.34593100       0.00712900
O        3.43567000       2.99146000      20.44764000      -0.60640900      -0.19785100       0.55968600
O        8.58024000       5.24185000      20.70420000      -0.06349900       0.37612000       0.29373900
O        5.11877000       0.65234000      19.24505000      -0.90248400       0.82456900      -0.37170300
O        7.25296000       1.96121000      20.27595000       0.42130000      -0.08970300      -0.07001100
O        3.08619000       0.42174000      21.30207000      -0.19484100      -0.17081600       0.48059100
O        6.31278000       0.14253000      23.88248000       0.34047700      -0.54119400      -1.11895700
O        5.32674000       1.93855000      22.04561000      -0.00829700       0.69711700      -0.12192000
O        7.07195000       5.25822000      23.22778000       0.72726500      -0.78873400       0.74254100
O        3.30929000       6.51691000      21.62860000       0.19895300      -1.10588600      -0.47261900
O        1.95241000       0.81439000      23.60868000       0.16691000       0.41920300      -0.66636600
O        6.92392000       4.17591000      18.80111000       0.25350900      -1.08027900      -0.11655300
O        6.09834000       2.51631000      15.63881000      -0.24117300      -0.14404800       0.51060100
O        3.64492000       4.27579000      23.17355000      -0.24689600      -0.55907600       0.06265300
O        9.08364000       4.63063000       9.93567000      -0.34047700       0.54119400       1.11895700
O        7.87837000       5.01228000      12.18955000      -0.19895300       1.10588600       0.47261900
O        4.43212000       0.49737000      10.64460000       0.24689600       0.55907600      -0.06265300
O        6.59956000       1.84813000      11.66770000       1.00855000      -1.34593100      -0.00712900
O        2.95826000       4.12081000      14.57309000       0.90248400      -0.82456900       0.37170300
O        4.11572000       6.27097000      10.59037000      -0.72726500       0.78873400      -0.74254100
O        4.99085000       4.35141000      12.51608000       0.19484100       0.17081600      -0.48059100
O        6.12463000       3.95877000      10.20947000      -0.16691000      -0.41920300       0.66636600
O        2.40257000       0.18353000      12.80264000      -0.06306400       0.26190200       1.08129900
O        2.75029000       2.83460000      11.77254000       0.00829700      -0.69711700       0.12192000
O        4.64136000       1.78170000      13.37051000       0.60640900       0.19785100      -0.55968600
O        6.47612000       5.15966000      14.72589000      -0.56360300      -0.16868600       0.63146000
O        9.92680000       6.28734000      13.11395000       0.06349900      -0.37612000      -0.29373900
O        1.15311000       0.59725000      15.01704000      -0.25350900       1.08027900       0.11655300
O        8.14346000       2.81195000      13.54219000      -0.42130000       0.08970300       0.07001100
O        8.70571000       6.70533000      15.34077000       0.32224200       0.29168900      -0.51544100
Zr       5.25028000       5.69172000      22.66081000      -0.30516900       0.03188300       0.84920900
Zr       7.25479000       1.43948000      22.61818000      -0.71467100      -0.70904500       0.74280400
Zr       9.05031000       5.13113000      22.77145000       0.58034400       2.26372400       0.49158200
Zr       3.30397000       2.10363000      22.49104000       0.45058300      -0.42369100       0.16445400
Zr       8.14163000       3.33367000      11.19997000       0.71467100       0.70904500      -0.74280400
Zr       5.93739000       5.83747000      11.15734000       0.30516900      -0.03188300      -0.84920900
Zr       4.77307000       2.66952000      11.32711000      -0.45058300       0.42369100      -0.16445400
Zr       6.39550000       4.25451000      16.73577000      -0.34800500      -0.39794700       0.28110500
Zr       8.42465000       4.96442000      14.27988000      -0.30607800       0.31448300      -1.04489400
Zr       6.57283000       1.42138000      14.02003000       0.30936100       0.69084100      -0.71664900
Zr       8.82359000       3.35177000      19.79812000      -0.30936100      -0.69084100       0.71664900
Zr       6.67072000       6.01254000      19.71787000      -0.52048100       0.87771800      -0.31166500
Zr       5.36475000       2.83255000      19.93171000       0.84520500       0.44176500       0.48316600
Zr      10.08240000       6.56477000      19.53827000       0.30607800      -0.31448300       1.04489400
Zr       4.51694000       5.51665000      14.10027000       0.52048100      -0.87771800       0.31166500
Zr       5.10718000       1.05458000      16.94775000       0.08987700      -0.53837400       0.65463800
Zr       2.96985000       3.71857000      16.87040000      -0.08987700       0.53837400      -0.65463800
Zr       1.68153000       0.51865000      17.08238000       0.34800500       0.39794700      -0.28110500
Zr       2.71229000       1.94060000      13.88643000      -0.84520500      -0.44176500      -0.48316600
Zr       9.45674000       6.39806000      11.04670000      -0.58034400      -2.26372400      -0.49158200
60
Lattice="7.319381 0.0 0.0 3.110628 6.756033 0.0 0.0 0.0 33.818147" Properties=species:S:1:pos:R:3:forces:R:3 energy=-566.41516331 stress="6.66109 -15.03754 2.44262 -15.03754 1.23053 5.14795 2.44262 5.14795 11.87283" pbc="T T T"
O        1.98236000       2.26816000      18.17843000       0.21495800       0.01454200      -0.52774000
O        8.32047000       4.06935000      16.22942000       0.82025900      -0.02538100      -0.08103900
O        7.07595000       0.70380000      17.58873000      -0.82025900       0.02538100       0.08103900
O        3.22577000       1.85440000      15.97440000       0.13643100      -0.83294500      -0.34528400
O        4.85126000       2.91875000      17.84374000      -0.13643100       0.83294500       0.34528400
O        4.52427000       5.12426000      16.39852000      -0.71837200       0.36158800      -0.17391100
O        6.66339000       6.40493000      17.41962000       0.71837200      -0.36158800       0.17391100
O        2.47844000       4.81333000      18.47781000      -0.31094600      -0.20405400       0.54636200
O        5.67739000       4.60854000      21.01832000       0.04076100      -0.62619200      -1.30605600
O        4.70441000       6.37441000      19.08493000       0.71168000       0.12070900      -0.61410300
O        1.47379000       2.93237000      22.15883000      -1.02011000       1.47512500      -0.14840300
O        3.44063000       2.98459000      20.45831000      -0.72142800      -0.11475100       0.45768300
O        8.57349000       5.25502000      20.70369000      -0.00770100       0.17540700       0.21584600
O        5.11788000       0.66490000      19.24595000      -0.93259900       0.78721400      -0.43513300
O        7.25400000       1.94613000      20.27678000       0.39711500       0.10892700      -0.10023300
O        3.08164000       0.40810000      21.30000000      -0.13305600       0.02910400       0.52424600
O        6.32141000       0.16830000      23.89475000       0.31433000      -0.69997000      -1.29324200
O        5.32535000       1.94328000      22.05000000      -0.08098000       0.74836600      -0.24212000
O        7.07522000       5.24928000      23.23598000       0.81538100      -0.77780200       0.70167800
O        3.32057000       6.50827000      21.63315000       0.05384100      -1.07846800      -0.51435500
O        1.94873000       0.82295000      23.60366000       0.26767300       0.36509900      -0.70630500
O        6.93352000       4.16781000      18.80567000       0.16630800      -1.07149300      -0.11286700
O        6.09468000       2.50499000      15.63971000      -0.21495800      -0.01454200       0.52774000
O        3.64212000       4.26574000      23.17718000      -0.27712700      -0.54231800       0.02525800
O        9.07501000       4.60485000       9.92339000      -0.31433000       0.69997000       1.29324200
O        7.86709000       5.02091000      12.18500000      -0.05384100       1.07846800       0.51435500
O        4.43491000       0.50742000      10.64097000       0.27712700       0.54231800      -0.02525800
O        6.60325000       1.84079000      11.65931000       1.02011000      -1.47512500       0.14840300
O        2.95916000       4.10826000      14.57220000       0.93259900      -0.78721400       0.43513300
O        4.11244000       6.27991000      10.58217000      -0.81538100       0.77780200      -0.70167800
O        4.99540000       4.36505000      12.51815000       0.13305600      -0.02910400      -0.52424600
O        6.12831000       3.95021000      10.21449000      -0.26767300      -0.36509900       0.70630500
O        2.39964000       0.16461000      12.79983000      -0.04076100       0.62619200       1.30605600
O        2.75169000       2.82988000      11.76815000       0.08098000      -0.74836600       0.24212000