60
Lattice="5.146 0.0 0.0 0.0 5.205 0.0 0.0 0.0 45.561243" Properties=species:S:1:pos:R:3:forces:R:3 energy=-555.19186542 stress="59.42514 -11.14001 11.90552 -11.14001 99.98782 -3.86901 11.90552 -3.86901 61.62063" pbc="T T T"
O        2.48329000       3.57427000      23.80572000       1.70130500      -2.47578700      -1.67051100
O        2.90343000       4.23323000      21.18265000       1.70067200       2.47753300      -1.66990900
O        3.18710000       0.97177000      24.37859000      -1.70067200      -2.47753300       1.66990900
O        0.32981000       4.10258000      22.44592000       0.30516500      -3.51902900       2.04709300
O        0.61472000       1.10242000      23.11532000      -0.30516500       3.51902900      -2.04709300
O        1.03486000       1.50008000      20.49226000      -0.30655500      -3.51911700      -2.04928700
O        5.05567000       3.70492000      25.06898000       0.30655500       3.51911700       2.04928700
O        2.76695000       1.63073000      27.00166000      -1.70368800       2.47695700       1.67258700
O        1.64299000       3.57427000      29.05185000       1.70210300      -2.47591200      -1.67913600
O        2.06314000       4.23323000      26.42878000       1.70166200       2.47491900      -1.67439300
O        4.50028000       1.50008000      30.98452000      -0.30410300      -3.53225600      -1.98486200
O        2.34680000       0.97177000      29.62472000      -1.69976900      -2.47871200       1.66210700
O        4.92042000       1.10242000      28.36145000      -0.31092000       3.52285100      -2.04292200
O        0.19457000       1.50008000      25.73839000      -0.31042100      -3.51905900      -2.04417000
O        4.21537000       3.70492000      30.31511000       0.31058900       3.51034900       2.04061600
O        1.92666000       1.63073000      32.24779000      -1.63551200       2.43313800       1.51596700
O        0.80270000       3.57427000      34.29797000       1.04565500      -1.67351800      -1.25136400
O        1.22285000       4.23323000      31.67491000       1.68933200       2.45607200      -1.68940800
O        1.50651000       0.97177000      34.87085000      -1.46616300      -1.34331200       2.02597900
O        3.79523000       4.10258000      32.93818000       0.51122100      -3.31007900       1.90821500
O        4.08013000       1.10242000      33.60758000      -0.05841300       3.17535500      -0.94879600
O        4.63552000       4.10258000      27.69205000       0.30946200      -3.51922500       2.05246200
O        3.60724000       1.63073000      21.75553000      -1.70130500       2.47578700       1.67051100
O        3.37508000       3.70492000      35.56124000       1.45578300       0.96680500       1.30118700
O        0.14183000       1.63073000      11.26327000      -1.04565500       1.67351800       1.25136400
O        2.29531000       1.10242000      12.62306000      -0.51122100       3.31007900      -1.90821500
O        2.71545000       1.50008000      10.00000000      -1.45578300      -0.96680500      -1.30118700
O        1.59025000       3.70492000      14.57672000       0.30410300       3.53225600       1.98486200
O        0.74996000       3.70492000      19.82285000       0.31042100       3.51905900       2.04417000
O        4.58402000       4.23323000      10.69039000       1.46616300       1.34331200      -2.02597900
O        4.16387000       3.57427000      13.31346000       1.63551200      -2.43313800      -1.51596700
O        2.01040000       4.10258000      11.95366000       0.05841300      -3.17535500       0.94879600
O        4.44754000       1.63073000      16.50940000      -1.70210300       2.47591200       1.67913600
O        4.86769000       0.97177000      13.88633000      -1.68933200      -2.45607200       1.68940800
O        3.74373000       4.23323000      15.93652000       1.69976900       2.47871200      -1.66210700
O        4.02739000       0.97177000      19.13246000      -1.70166200      -2.47491900       1.67439300
O        1.17011000       4.10258000      17.19979000       0.31092000      -3.52285100       2.04292200
O        1.45501000       1.10242000      17.86919000      -0.30946200       3.51922500      -2.05246200
O        1.87516000       1.50008000      15.24613000      -0.31058900      -3.51034900      -2.04061600
O        3.32358000       3.57427000      18.55959000       1.70368800      -2.47695700      -1.67258700
Zr       2.59305000       2.42709000      34.36827000      -0.79264800       1.32752500      -1.35330900
Zr       0.13630000       2.77791000      32.17749000      -0.02039800       0.39825700       1.65228000
Zr       4.86216000       5.02959000      34.80055000       0.23584700      -1.87749100       0.87989500
Zr       3.01320000       0.17541000      31.74521000      -0.09047300       0.27797200      -1.65290500
Zr       0.80823000       2.42709000      13.38375000       0.02039800      -0.39825700      -1.65228000
Zr       3.49748000       2.77791000      11.19297000       0.79264800      -1.32752500       1.35330900
Zr       3.07733000       5.02959000      13.81603000       0.09047300      -0.27797200       1.65290500
Zr       4.69379000       0.17541000      21.25295000       0.11817100       0.32942400      -1.61927800
Zr       2.23704000       5.02959000      19.06216000      -0.11770400      -0.32796500       1.61924900
Zr       2.65718000       2.77791000      16.43910000      -0.10450200       0.32345700       1.62311400
Zr       3.43335000       2.42709000      29.12214000       0.10450200      -0.32345700      -1.62311400
Zr       0.97660000       2.77791000      26.93136000      -0.11776600       0.32929300       1.61985800
Zr       0.55645000       5.02959000      29.55442000      -0.10946900      -0.33781100       1.62448100
Zr       3.85349000       0.17541000      26.49908000       0.11770400       0.32796500      -1.61924900
Zr       5.11393000       2.42709000      18.62988000       0.11776600      -0.32929300      -1.61985800
Zr       4.27364000       2.42709000      23.87601000       0.11902000      -0.32872200      -1.61933000
Zr       1.81689000       2.77791000      21.68523000      -0.11902000       0.32872200       1.61933000
Zr       1.39674000       5.02959000      24.30829000      -0.11817100      -0.32942400       1.61927800
Zr       0.38808000       0.17541000      16.00682000       0.10946900       0.33781100      -1.62448100
Zr       1.22838000       0.17541000      10.76069000      -0.23584700       1.87749100      -0.87989500
60
Lattice="5.146 0.0 0.0 0.0 5.205 0.0 0.0 0.0 45.561243" Properties=species:S:1:pos:R:3:forces:R:3 energy=-566.21666476 stress="60.75654 -17.15297 -5.34526 -17.15297 33.42251 -0.02785 -5.34526 -0.02785 19.7093" pbc="T T T"
O        2.56536000       3.45483000      23.72513000      -0.41497300      -0.10817700      -0.70308400
O        2.98548000       4.35275000      21.10209000      -0.41666800       0.10802300      -0.69913100
O        3.10505000       0.85225000      24.45915000       0.41666800      -0.10802300       0.69913100
O        0.34454000       3.93281000      22.54468000      -1.29564900       0.69678700       0.87322100
O        0.60000000       1.27219000      23.01657000       1.29564900      -0.69678700      -0.87322100
O        1.02008000       1.33031000      20.39340000       1.29789200       0.69648700      -0.87268900
O        5.07046000       3.87469000      25.16785000      -1.29789200      -0.69648700       0.87268900
O        2.68476000       1.75022000      27.08235000       0.41805700       0.10722100       0.69216100
O        1.72511000       3.45483000      28.97084000      -0.42218600      -0.09938100      -0.68900400
O        2.14523000       4.35262000      26.34800000      -0.41694100       0.10587500      -0.69980700
O        4.48561000       1.32968000      30.88876000       1.28349400       0.72342200      -0.72094400
O        2.26480000       0.85219000      29.70491000       0.39950400      -0.14239000       0.64792900
O        4.90542000       1.27237000      28.26290000       1.30017800      -0.71078600      -0.86545800
O        0.17960000       1.33031000      25.63977000       1.29746700       0.70106000      -0.87722500
O        4.23036000       3.87427000      30.41356000      -1.26884600      -0.71898600       0.85032100
O        1.84776000       1.74811000      32.32092000       0.24936800       0.41865600       0.42801100
O        0.85314000       3.49354000      34.23761000      -0.26237700      -0.24674300      -0.98701600
O        1.30434000       4.35171000      31.59341000      -0.48257200      -0.00295200      -0.61601000
O        1.43578000       0.90697000      34.96859000      -0.17684300       0.16338300       0.91529700
O        3.81989000       3.94289000      33.03024000      -1.15286100       0.75423500       0.54706200
O        4.07731000       1.25561000      33.56181000       0.81116000      -0.33162500       0.08493600
O        4.65045000       3.93280000      27.79106000      -1.29612800       0.69966100       0.87013800
O        3.52517000       1.75017000      21.83612000       0.41497300       0.10817700       0.70308400
O        3.44531000       3.75156000      35.62402000       0.57910200      -0.10644200       0.45193600
O        0.09139000       1.71146000      11.32364000       0.26237700       0.24674300       0.98701600
O        2.27064000       1.26211000      12.53101000       1.15286100      -0.75423500      -0.54706200
O        2.64522000       1.45344000       9.93723000      -0.57910200       0.10644200      -0.45193600
O        1.60493000       3.87532000      14.67248000      -1.28349400      -0.72342200       0.72094400
O        0.76494000       3.87469000      19.92147000      -1.29746700      -0.70106000       0.87722500
O        4.65475000       4.29803000      10.59265000       0.17684300      -0.16338300      -0.91529700
O        4.24278000       3.45689000      13.24032000      -0.24936800      -0.41865600      -0.42801100
O        2.01322000       3.94939000      11.99943000      -0.81116000       0.33162500      -0.08493600
O        4.36542000       1.75017000      16.59040000       0.42218600       0.09938100       0.68900400
O        4.78619000       0.85329000      13.96783000       0.48257200       0.00295200       0.61601000
O        3.82573000       4.35281000      15.85634000      -0.39950400       0.14239000      -0.64792900
O        3.94530000       0.85238000      19.21324000       0.41694100      -0.10587500       0.69980700
O        1.18511000       3.93263000      17.29834000      -1.30017800       0.71078600       0.86545800
O        1.44008000       1.27220000      17.77018000       1.29612800      -0.69966100      -0.87013800
O        1.86017000       1.33073000      15.14769000       1.26884600       0.71898600      -0.85032100
O        3.40577000       3.45478000      18.47890000      -0.41805700      -0.10722100      -0.69216100
Zr       2.55481000       2.49113000      34.30299000       0.38890000      -1.10394200       1.43529900
Zr       0.13532000       2.79712000      32.25720000      -0.41890700      -0.74210300      -1.60925800
Zr       4.87353000       4.93902000      34.84300000      -0.46725400       0.95384000      -1.18581200
Zr       3.00884000       0.18882000      31.66547000       0.31842400       0.20532000       1.60454500
Zr       0.80921000       2.40788000      13.30404000       0.41890700       0.74210300       1.60925800
Zr       3.53572000       2.71386000      11.25826000      -0.38890000       1.10394200      -1.43529900
Zr       3.08170000       5.01618000      13.89578000      -0.31842400      -0.20532000      -1.60454500
Zr       4.69949000       0.19130000      21.17483000       0.15123800      -0.14706500       1.37809300
Zr       2.23136000       5.01377000      19.14028000      -0.15056600       0.14783600      -1.38254900
Zr       2.65214000       2.79351000      16.51740000      -0.17332500      -0.13536900      -1.41357400
Zr       3.43839000       2.41149000      29.04384000       0.17332500       0.13536900       1.41357400
Zr       0.97092000       2.79379000      27.00951000      -0.15825400      -0.14755100      -1.38153200
Zr       0.55117000       5.01329000      29.63279000      -0.22929200       0.18480500      -1.42401800
Zr       3.85917000       0.19123000      26.42096000       0.15056600      -0.14783600       1.38254900
Zr       5.11962000       2.41121000      18.55174000       0.15825400       0.14755100       1.38153200
Zr       4.27938000       2.41123000      23.79789000       0.14952100       0.14674000       1.37953200
Zr       1.81115000       2.79377000      21.76335000      -0.14952100      -0.14674000      -1.37953200
Zr       1.39104000       5.01370000      24.38641000      -0.15123800       0.14706500      -1.37809300
Zr       0.39336000       0.19171000      15.92845000       0.22929200      -0.18480500       1.42401800
Zr       1.21700000       0.26598000      10.71824000       0.46725400      -0.95384000       1.18581200
60
Lattice="5.146 0.0 0.0 0.0 5.205 0.0 0.0 0.0 45.561243" Properties=species:S:1:pos:R:3:forces:R:3 energy=-566.35616402 stress="55.20837 -16.50919 -3.67965 -16.50919 34.17048 -0.36042 -3.67965 -0.36042 20.28648" pbc="T T T"
O        2.55591000       3.46859000      23.73441000      -0.19052700      -0.35474000      -0.81013400
O        2.97603000       4.33898000      21.11137000      -0.19154400       0.35299800      -0.81020600
O        3.11450000       0.86602000      24.44987000       0.19154400      -0.35299800       0.81020600
O        0.34284000       3.95237000      22.53330000      -1.14145900       0.29463400       0.90613700
O        0.60169000       1.25263000      23.02794000       1.14145900      -0.29463400      -0.90613700
O        1.02178000       1.34986000      20.40478000       1.14367200       0.29394000      -0.90373400
O        5.06875000       3.85514000      25.15646000      -1.14367200      -0.29394000       0.90373400
O        2.69423000       1.73646000      27.07305000       0.19171100       0.35473000       0.80276300
O        1.71565000       3.46859000      28.98017000      -0.19846900      -0.34654300      -0.79736000
O        2.13578000       4.33887000      26.35731000      -0.19239500       0.35378000      -0.80787900
O        4.48730000       1.34930000      30.89979000       1.13570300       0.32099500      -0.76319000
O        2.27425000       0.86597000      29.69567000       0.17898500      -0.38587600       0.76129200
O        4.90715000       1.25280000      28.27425000       1.14633900      -0.30166500      -0.90115800
O        0.18132000       1.34987000      25.65113000       1.14337700       0.29383200      -0.91267800
O        4.22863000       3.85476000      30.40222000      -1.11691600      -0.31351600       0.88621900
O        1.85684000       1.73459000      32.31250000       0.05710500       0.60742500       0.53391300
O        0.84733000       3.50284000      34.24456000      -0.05193100      -0.45036100      -1.03333900
O        1.29496000       4.33807000      31.60280000      -0.24160600       0.26128100      -0.73639000
O        1.44393000       0.91443000      34.95733000      -0.25778400       0.06965200       1.01038700
O        3.81705000       3.96129000      33.01963000      -0.98114300       0.35652600       0.61206700
O        4.07764000       1.23796000      33.56708000       0.75487600      -0.01955800       0.04747400
O        4.64873000       3.95236000      27.77966000      -1.14064300       0.29628700       0.90290400
O        3.53462000       1.73641000      21.82684000       0.19052700       0.35474000       0.81013400
O        3.43722000       3.74619000      35.61679000       0.68492700      -0.00467800       0.48822200
O        0.09720000       1.70216000      11.31668000       0.05193100       0.45036100       1.03333900
O        2.27348000       1.24371000      12.54161000       0.98114300      -0.35652600      -0.61206700
O        2.65331000       1.45881000       9.94446000      -0.68492700       0.00467800      -0.48822200
O        1.60324000       3.85570000      14.66145000      -1.13570300      -0.32099500       0.76319000
O        0.76321000       3.85513000      19.91011000      -1.14337700      -0.29383200       0.91267800
O        4.64661000       4.29057000      10.60391000       0.25778400      -0.06965200      -1.01038700
O        4.23369000       3.47041000      13.24874000      -0.05710500      -0.60742500      -0.53391300
O        2.01289000       3.96704000      11.99416000      -0.75487600       0.01955800      -0.04747400
O        4.37488000       1.73641000      16.58107000       0.19846900       0.34654300       0.79736000
O        4.79557000       0.86693000      13.95845000       0.24160600      -0.26128100       0.73639000
O        3.81628000       4.33903000      15.86557000      -0.17898500       0.38587600      -0.76129200
O        3.95475000       0.86613000      19.20394000       0.19239500      -0.35378000       0.80787900
O        1.18338000       3.95220000      17.28699000      -1.14633900       0.30166500       0.90115800
O        1.44180000       1.25264000      17.78158000       1.14064300      -0.29628700      -0.90290400
O        1.86190000       1.35024000      15.15902000       1.11691600       0.31351600      -0.88621900
O        3.39630000       3.46854000      18.48819000      -0.19171100      -0.35473000      -0.80276300
Zr       2.55922000       2.48376000      34.31051000       0.13777300      -0.84267500       1.16367800
Zr       0.13543000       2.79491000      32.24802000      -0.36653900      -0.62607700      -1.34903000
Zr       4.87222000       4.94945000      34.83811000      -0.45765000       0.69074000      -1.06082700
Zr       3.00934000       0.18727000      31.67465000       0.24795500       0.20016500       1.33947700
Zr       0.80910000       2.41009000      13.31322000       0.36653900       0.62607700       1.34903000
Zr       3.53131000       2.72124000      11.25074000      -0.13777300       0.84267500      -1.16367800
Zr       3.08119000       5.01773000      13.88659000      -0.24795500      -0.20016500      -1.33947700
Zr       4.69883000       0.18947000      21.18383000       0.13720800      -0.10687100       1.14464000
Zr       2.23201000       5.01559000      19.13128000      -0.13721300       0.10786600      -1.15064000
Zr       2.65272000       2.79172000      16.50838000      -0.15343800      -0.09719100      -1.17724500
Zr       3.43781000       2.41328000      29.05286000       0.15343800       0.09719100       1.17724500
Zr       0.97157000       2.79196000      27.00050000      -0.14231100      -0.10915300      -1.14709700
Zr       0.55178000       5.01517000      29.62377000      -0.20330800       0.14231800      -1.18402900
Zr       3.85852000       0.18941000      26.42996000       0.13721300      -0.10786600       1.15064000
Zr       5.11896000       2.41304000      18.56074000       0.14231100       0.10915300       1.14709700
Zr       4.27872000       2.41306000      23.80689000       0.13569200       0.10713600       1.14650400
Zr       1.81181000       2.79194000      21.75435000      -0.13569200      -0.10713600      -1.14650400
Zr       1.39170000       5.01553000      24.37742000      -0.13720800       0.10687100      -1.14464000
Zr       0.39275000       0.18983000      15.93748000       0.20330800      -0.14231800       1.18402900
Zr       1.21831000       0.25555000      10.72313000       0.45765000      -0.69074000       1.06082700
60
Lattice="5.146 0.0 0.0 0.0 5.205 0.0 0.0 0.0 45.561243" Properties=species:S:1:pos:R:3:forces:R:3 energy=-569.23690005 stress="29.88359 -16.68012 0.20737 -16.68012 25.39167 -1.49671 0.20737 -1.49671 17.78857" pbc="T T T"
O        2.55846000       3.43509000      23.68490000      -0.44064700       0.08322400      -0.39233100
O        2.97853000       4.37241000      21.06186000      -0.43985400      -0.08097500      -0.39320500
O        3.11200000       0.83259000      24.49938000       0.43985400       0.08097500       0.39320500
O        0.29111000       3.94240000      22.58989000      -0.50062600       0.09432600       0.59960500
O        0.65342000       1.26260000      22.97136000       0.50062600      -0.09432600      -0.59960500
O        1.07360000       1.33986000      20.34830000       0.49680800       0.09490800      -0.60318800
O        5.01693000       3.86514000      25.21295000      -0.49680800      -0.09490800       0.60318800
O        2.69171000       1.76997000      27.12223000       0.44796800      -0.07878700       0.39209900
O        1.71783000       3.43547000      28.93121000      -0.43520200       0.07624900      -0.41949800
O        2.13824000       4.37232000      26.30788000      -0.44057900      -0.08340100      -0.39726700
O        4.53876000       1.34049000      30.85037000       0.42997700      -0.03105300      -0.52810400
O        2.27116000       0.83098000      29.74282000       0.48795800       0.08821100       0.39636000
O        4.95907000       1.26246000      28.21793000       0.48024800      -0.07119100      -0.55600400
O        0.23310000       1.33986000      25.59426000       0.49949200       0.09234100      -0.58686300
O        4.17809000       3.86378000      30.45782000      -0.50011300      -0.12398200       0.48393200
O        1.84845000       1.77971000      32.34794000       0.58425600      -0.02604600       0.30948900
O        0.85198000       3.47027000      34.18737000      -0.25493700       0.27497400      -0.65405400
O        1.29502000       4.36703000      31.55664000      -0.35574200      -0.04596900      -0.43172700
O        1.42184000       0.90861000      35.01869000      -0.04194600       0.01700300       0.74702800
O        3.77427000       3.95565000      33.06142000      -0.45289300       0.22448800       0.11056800
O        4.11282000       1.25857000      33.56289000       0.29518000       0.08567500      -0.43483300
O        4.59707000       3.94247000      27.83613000      -0.50134400       0.09672700       0.58329800
O        3.53207000       1.76991000      21.87634000       0.44064700      -0.08322400       0.39233100
O        3.47937000       3.75252000      35.64862000       0.47211100      -0.12612200       0.16017400
O        0.09256000       1.73473000      11.37387000       0.25493700      -0.27497400       0.65405400
O        2.31626000       1.24935000      12.49983000       0.45289300      -0.22448800      -0.11056800
O        2.61116000       1.45248000       9.91263000      -0.47211100       0.12612200      -0.16017400
O        1.55177000       3.86451000      14.71088000      -0.42997700       0.03105300       0.52810400
O        0.71143000       3.86514000      19.96698000      -0.49949200      -0.09234100       0.58686300
O        4.66869000       4.29639000      10.54255000       0.04194600      -0.01700300      -0.74702800
O        4.24208000       3.42529000      13.21330000      -0.58425600       0.02604600      -0.30948900
O        1.97771000       3.94643000      11.99835000      -0.29518000      -0.08567500       0.43483300
O        4.37270000       1.76953000      16.63004000       0.43520200      -0.07624900       0.41949800
O        4.79551000       0.83797000      14.00461000       0.35574200       0.04596900       0.43172700
O        3.81937000       4.37402000      15.81842000      -0.48795800      -0.08821100      -0.39636000
O        3.95229000       0.83268000      19.25336000       0.44057900       0.08340100       0.39726700
O        1.13146000       3.94254000      17.34331000      -0.48024800       0.07119100       0.55600400
O        1.49346000       1.26253000      17.72511000       0.50134400      -0.09672700      -0.58329800
O        1.91244000       1.34122000      15.10342000       0.50011300       0.12398200      -0.48393200
O        3.39882000       3.43503000      18.43902000      -0.44796800       0.07878700      -0.39209900
Zr       2.56034000       2.45304000      34.35618000      -0.42877300       0.10860100       1.21368700
Zr       0.11802000       2.76810000      32.19564000      -0.06512700       0.81090000      -0.31269500
Zr       4.85225000       4.96928000      34.79408000       0.30200600      -0.80965800      -0.53256600
Zr       3.02041000       0.19859000      31.72658000      -0.34369200      -0.08899000       0.65036700
Zr       0.82651000       2.43690000      13.36561000       0.06512700      -0.81090000       0.31269500
Zr       3.53019000       2.75196000      11.20507000       0.42877300      -0.10860100      -1.21368700
Zr       3.07012000       5.00641000      13.83466000       0.34369200       0.08899000      -0.65036700
Zr       4.70610000       0.18667000      21.22680000      -0.01448600       0.29521900       0.52298000
Zr       2.22475000       5.01845000      19.08803000       0.02825600      -0.29030800      -0.51012000
Zr       2.64478000       2.78933000      16.46390000       0.11778400       0.19626400      -0.49349900
Zr       3.44575000       2.41567000      29.09734000      -0.11778400      -0.19626400       0.49349900
Zr       0.96406000       2.78905000      26.95742000       0.03248300       0.31158200      -0.51584900
Zr       0.54145000       5.01959000      29.57897000       0.10168500      -0.48049400      -0.43265400
Zr       3.86578000       0.18655000      26.47321000      -0.02825600       0.29030800       0.51012000
Zr       5.12647000       2.41595000      18.60382000      -0.03248300      -0.31158200       0.51584900
Zr       4.28592000       2.41588000      23.84995000      -0.01225600      -0.29518500       0.51909500
Zr       1.80461000       2.78912000      21.71129000       0.01225600       0.29518500      -0.51909500
Zr       1.38443000       5.01833000      24.33444000       0.01448600      -0.29521900      -0.52298000
Zr       0.40308000       0.18541000      15.98227000      -0.10168500       0.48049400       0.43265400
Zr       1.23828000       0.23572000      10.76716000      -0.30200600       0.80965800       0.53256600
60
Lattice="5.146 0.0 0.0 0.0 5.205 0.0 0.0 0.0 45.561243" Properties=species:S:1:pos:R:3:forces:R:3 energy=-569.8145072 stress="16.51173 -16.84754 1.7718 -16.84754 21.48066 -2.0634 1.7718 -2.0634 17.42501" pbc="T T T"
O        2.56020000       3.41230000      23.65122000      -0.63525500       0.41055200      -0.06541300
O        2.98023000       4.39516000      21.02819000      -0.63339900      -0.40632300      -0.07072500
O        3.11030000       0.80984000      24.53306000       0.63339900       0.40632300       0.07072500
O        0.25592000       3.93562000      22.62838000      -0.13529200       0.04751100       0.37771400
O        0.68861000       1.26938000      22.93287000       0.13529200      -0.04751100      -0.37771400
O        1.10886000       1.33306000      20.30987000       0.13587300       0.04491500      -0.37901000
O        4.98167000       3.87194000      25.25137000      -0.13587300      -0.04491500       0.37901000
O        2.69000000       1.79276000      27.15568000       0.64700400      -0.40416500       0.07277100
O        1.71932000       3.41294000      28.89790000      -0.61846100       0.39728700      -0.10866900
O        2.13992000       4.39508000      26.27426000      -0.63309100      -0.41021700      -0.06855900
O        4.57377000       1.33449000      30.81675000      -0.00398200      -0.23773000      -0.38467800
O        2.26906000       0.80718000      29.77489000       0.71349600       0.44265000       0.10720700
O        4.99439000       1.26903000      28.17962000       0.10566500       0.00146300      -0.31937400
O        0.26833000       1.33305000      25.55557000       0.13467900       0.04324600      -0.36085100
O        4.14372000       3.86992000      30.49564000      -0.15462900      -0.06827800       0.19982700
O        1.84274000       1.81041000      32.37205000       0.96387100      -0.50440600       0.10942100
O        0.85513000       3.44811000      34.14847000      -0.33869100       0.67609300      -0.38296500
O        1.29507000       4.38673000      31.52524000      -0.45039400      -0.26367400      -0.18392200
O        1.40681000       0.90465000      35.06042000       0.08587600      -0.00777300       0.54606300
O        3.74517000       3.95182000      33.08984000      -0.19064800       0.19729800      -0.22319200
O        4.13675000       1.27258000      33.56004000      -0.05831000       0.21234400      -0.75837400
O        4.56192000       3.93574000      27.87454000      -0.14368100       0.04516600       0.34660200
O        3.53033000       1.79270000      21.91002000       0.63525500      -0.41055200       0.06541300
O        3.50804000       3.75683000      35.67027000       0.33947900      -0.18081900      -0.07288300
O        0.08940000       1.75689000      11.41277000       0.33869100      -0.67609300       0.38296500
O        2.34536000       1.25318000      12.47140000       0.19064800      -0.19729800       0.22319200
O        2.58249000       1.44817000       9.89097000      -0.33947900       0.18081900       0.07288300
O        1.51676000       3.87051000      14.74450000       0.00398200       0.23773000       0.38467800
O        0.67620000       3.87195000      20.00567000      -0.13467900      -0.04324600       0.36085100
O        4.68372000       4.30035000      10.50082000      -0.08587600       0.00777300      -0.54606300
O        4.24779000       3.39459000      13.18920000      -0.96387100       0.50440600      -0.10942100
O        1.95378000       3.93242000      12.00121000       0.05831000      -0.21234400       0.75837400
O        4.37121000       1.79206000      16.66334000       0.61846100      -0.39728700       0.10866900
O        4.79547000       0.81827000      14.03601000       0.45039400       0.26367400       0.18392200
O        3.82147000       4.39782000      15.78635000      -0.71349600      -0.44265000      -0.10720700