60
Lattice="5.313 0.0 0.0 -0.813881 5.081231 0.0 0.0 -0.0 45.674183" Properties=species:S:1:pos:R:3:forces:R:3 energy=-547.73557153 stress="43.58813 4.98467 3.68808 4.98467 66.73231 1.14615 3.68808 1.14615 80.33077" pbc="T T T"
O        2.94369000       4.68845000      23.80886000      -1.91874700       1.41517800      -2.47367000
O        0.28719000       4.68845000      24.46782000      -1.91843700       1.41537900       2.47595000
O        4.21193000       0.39278000      21.20636000       1.91843700      -1.41537900      -2.47595000
O        1.94160000       2.34702000      24.33717000       1.97216400       0.62946300      -3.52062400
O        2.55752000       2.73421000      21.33701000      -1.97216400      -0.62946300       3.52062400
O       -0.09898000       2.73421000      21.73467000      -1.97374100      -0.62875300      -3.52050600
O        4.59810000       2.34702000      23.93951000       1.97374100       0.62875300       3.52050600
O        1.55543000       0.39278000      27.07032000       1.91951900      -1.41404000       2.47484700
O        2.94369000       4.68845000      29.01386000      -1.91227000       1.41976200      -2.46659000
O        0.28719000       4.68845000      29.67282000      -1.92238400       1.39790100       2.45005800
O       -0.09898000       2.73421000      32.14467000      -2.23228800      -0.78956800      -3.50908300
O        4.21193000       0.39278000      26.41136000       1.91891100      -1.41545700      -2.47477400
O        2.55752000       2.73421000      26.54201000      -1.97237200      -0.62731500       3.52140600
O       -0.09898000       2.73421000      26.93967000      -1.97505100      -0.62901100      -3.51940300
O        4.59810000       2.34702000      29.14451000       1.96106700       0.62606200       3.51650600
O        1.55543000       0.39278000      32.27532000       1.98686800      -1.24364200       2.24986200
O        2.94369000       4.68845000      34.21886000      -0.30351200       0.36467200       0.86139000
O        0.28719000       4.68845000      34.87782000      -2.94051000       0.06559400       3.64612400
O        4.21193000       0.39278000      31.61636000       1.87936100      -1.53675000      -2.38022400
O        1.94160000       2.34702000      34.74717000       2.70238200       1.04710200       0.89258900
O        2.55752000       2.73421000      31.74701000      -1.80585300      -0.64731200       3.48204600
O        1.94160000       2.34702000      29.54217000       1.99048700       0.63821000      -3.51648900
O        1.55543000       0.39278000      21.86532000       1.91874700      -1.41517800       2.47367000
O        4.59810000       2.34702000      34.34951000       0.41863000       2.12088900       4.39901000
O        1.55543000       0.39278000      11.45532000       0.30351200      -0.36467200      -0.86139000
O        2.55752000       2.73421000      10.92701000      -2.70238200      -1.04710200      -0.89258900
O       -0.09898000       2.73421000      11.32467000      -0.41863000      -2.12088900      -4.39901000
O        4.59810000       2.34702000      13.52951000       2.23228800       0.78956800       3.50908300
O        4.59810000       2.34702000      18.73451000       1.97505100       0.62901100       3.51940300
O        0.28719000       4.68845000      14.05782000      -1.87936100       1.53675000       2.38022400
O        2.94369000       4.68845000      13.39886000      -1.98686800       1.24364200      -2.24986200
O        1.94160000       2.34702000      13.92717000       1.80585300       0.64731200      -3.48204600
O        1.55543000       0.39278000      16.66032000       1.91227000      -1.41976200       2.46659000
O        4.21193000       0.39278000      10.79636000       2.94051000      -0.06559400      -3.64612400
O        0.28719000       4.68845000      19.26282000      -1.91891100       1.41545700       2.47477400
O        4.21193000       0.39278000      16.00136000       1.92238400      -1.39790100      -2.45005800
O        1.94160000       2.34702000      19.13217000       1.97237200       0.62731500      -3.52140600
O        2.55752000       2.73421000      16.13201000      -1.99048700      -0.63821000       3.51648900
O       -0.09898000       2.73421000      16.52967000      -1.96106700      -0.62606200      -3.51650600
O        2.94369000       4.68845000      18.60386000      -1.91951900       1.41404000      -2.47484700
Zr       3.54383000       1.38616000      33.07168000      -2.22238600       0.90772300      -0.10141400
Zr       0.95529000       3.69507000      33.42250000       1.48695300      -0.60762900       1.91696300
Zr       3.61179000       3.69507000      35.67418000       0.90208300      -1.63056000      -7.34445200
Zr       0.88733000       1.38616000      30.82000000      -1.57172900      -0.17910600       0.46014100
Zr       3.54383000       1.38616000      12.25168000      -1.48695300       0.60762900      -1.91696300
Zr       0.95529000       3.69507000      12.60250000       2.22238600      -0.90772300       0.10141400
Zr       3.61179000       3.69507000      14.85418000       1.57172900       0.17910600      -0.46014100
Zr       0.88733000       1.38616000      20.41000000      -1.61764500      -0.13795300       0.32800000
Zr       3.61179000       3.69507000      20.05918000       1.61791300       0.13902700      -0.32724300
Zr       0.95529000       3.69507000      17.80750000       1.61808400       0.13454500       0.33144500
Zr       3.54383000       1.38616000      27.86668000      -1.61808400      -0.13454500      -0.33144500
Zr       0.95529000       3.69507000      28.21750000       1.61436600       0.14370900       0.33649500
Zr       3.61179000       3.69507000      30.46918000       1.63753300       0.08202200      -0.36458500
Zr       0.88733000       1.38616000      25.61500000      -1.61791300      -0.13902700       0.32724300
Zr       3.54383000       1.38616000      17.45668000      -1.61436600      -0.14370900      -0.33649500
Zr       3.54383000       1.38616000      22.66168000      -1.61794900      -0.13823700      -0.32755400
Zr       0.95529000       3.69507000      23.01250000       1.61794900       0.13823700       0.32755400
Zr       3.61179000       3.69507000      25.26418000       1.61764500       0.13795300      -0.32800000
Zr       0.88733000       1.38616000      15.20500000      -1.63753300      -0.08202200       0.36458500
Zr       0.88733000       1.38616000      10.00000000      -0.90208300       1.63056000       7.34445200
60
Lattice="5.313 0.0 0.0 -0.813881 5.081231 0.0 0.0 0.0 45.674183" Properties=species:S:1:pos:R:3:forces:R:3 energy=-558.45886679 stress="39.41453 -32.37779 5.30469 -32.37779 91.36971 -3.51116 5.30469 -3.51116 43.25538" pbc="T T T"
O        2.85113000       4.75672000      23.68953000      -0.62581500      -0.52542900      -0.10795400
O        0.19464000       4.75673000      24.58726000      -0.62499700      -0.52518800       0.10463800
O        4.30448000       0.32450000      21.08692000       0.62499700       0.52518800      -0.10463800
O        2.03674000       2.37739000      24.16733000       1.07032200      -1.14387500       0.69938200
O        2.46238000       2.70384000      21.50685000      -1.07032200       1.14387500      -0.69938200
O       -0.19420000       2.70388000      21.56483000      -1.06870100       1.14242600       0.69882800
O        4.69332000       2.37735000      24.10935000       1.06870100      -1.14242600      -0.69882800
O        1.64803000       0.32456000      27.18971000       0.62979500       0.52170300       0.10435000
O        2.85144000       4.75695000      28.89487000      -0.61948100      -0.52782300      -0.10403000
O        0.19445000       4.75589000      29.79101000      -0.67989700      -0.51940400       0.09773400
O       -0.20667000       2.69612000      31.97538000      -1.05766900       1.19490400       1.14744600
O        4.30450000       0.32449000      26.29197000       0.62571500       0.52598100      -0.11103200
O        2.46237000       2.70395000      26.71189000      -1.06966000       1.14188000      -0.69770500
O       -0.19426000       2.70387000      26.76989000      -1.06994600       1.14273400       0.69872600
O        4.69271000       2.37722000      29.31416000       1.07013600      -1.15433100      -0.71361000
O        1.65128000       0.33278000      32.38386000       1.14372800       0.04272800       0.75705000
O        2.92905000       4.70605000      34.26042000      -4.99566900       6.95469800      -7.65164600
O        0.14533000       4.69162000      35.05372000       0.30244500      -0.74490500      -0.41537500
O        4.30259000       0.31864000      31.50154000       0.36680000       0.64103400       0.50702400
O        2.07197000       2.39754000      34.79023000       0.43495200      -0.57009000      -1.44645900
O        2.47040000       2.70298000      31.91499000      -1.00377500       1.12801900      -0.29495100
O        2.03763000       2.37781000      29.37253000       1.07676000      -1.14283400       0.79036800
O        1.64799000       0.32451000      21.98465000       0.62581500       0.52542900       0.10795400
O        4.61830000       2.44934000      34.56173000       5.06022700      -7.39390900      -5.94657000
O        1.57007000       0.37519000      11.41376000       4.99566900      -6.95469800       7.65164600
O        2.42715000       2.68370000      10.88395000      -0.43495200       0.57009000       1.44645900
O       -0.11918000       2.63189000      11.11245000      -5.06022700       7.39390900       5.94657000
O        4.70579000       2.38511000      13.69880000       1.05766900      -1.19490400      -1.14744600
O        4.69338000       2.37737000      18.90430000       1.06994600      -1.14273400      -0.69872600
O        0.19653000       4.76259000      14.17265000      -0.36680000      -0.64103400      -0.50702400
O        2.84784000       4.74845000      13.29033000      -1.14372800      -0.04272800      -0.75705000
O        2.02872000       2.37825000      13.75919000       1.00377500      -1.12801900       0.29495100
O        1.64768000       0.32429000      16.77931000       0.61948100       0.52782300       0.10403000
O        4.35378000       0.38961000      10.62047000      -0.30244500       0.74490500       0.41537500
O        0.19462000       4.75674000      19.38221000      -0.62571500      -0.52598100       0.11103200
O        4.30467000       0.32534000      15.88317000       0.67989700       0.51940400      -0.09773400
O        2.03675000       2.37728000      18.96229000       1.06966000      -1.14188000       0.69770500
O        2.46149000       2.70342000      16.30166000      -1.07676000       1.14283400      -0.79036800
O       -0.19359000       2.70401000      16.36003000      -1.07013600       1.15433100       0.71361000
O        2.85109000       4.75667000      18.48447000      -0.62979500      -0.52170300      -0.10435000
Zr       3.43661000       1.42995000      33.06679000       1.06870400      -1.02763700       0.32679300
Zr       1.02703000       3.66576000      33.51498000      -2.02927900       0.18014500       2.51779800
Zr       3.65531000       3.61641000      35.31987000       0.25147900       1.29168100      12.18670200
Zr       0.81150000       1.37752000      30.84220000       1.25267400       0.11451700      -0.10111500
Zr       3.47209000       1.41547000      12.15920000       2.02927900      -0.18014500      -2.51779800
Zr       1.06250000       3.65128000      12.60739000      -1.06870400       1.02763700      -0.32679300
Zr       3.68762000       3.70371000      14.83198000      -1.25267400      -0.11451700       0.10111500
Zr       0.80929000       1.37950000      20.42582000       1.33831500       0.36411000      -0.14920700
Zr       3.68984000       3.70178000      20.04340000      -1.33841500      -0.36428500       0.14508300
Zr       1.03335000       3.70156000      17.82349000      -1.34666100      -0.35265200      -0.14315600
Zr       3.46577000       1.37967000      27.85069000       1.34666100       0.35265200       0.14315600
Zr       1.03317000       3.70200000      28.23373000      -1.34759400      -0.34901100      -0.14981200
Zr       3.69079000       3.69903000      30.45159000      -1.19052600      -0.13798000      -0.00169000
Zr       0.80928000       1.37945000      25.63079000       1.33841500       0.36428500      -0.14508300
Zr       3.46595000       1.37923000      17.44045000       1.34759400       0.34901100       0.14981200
Zr       3.46577000       1.37949000      22.64588000       1.33941600       0.36328100       0.14728300
Zr       1.03335000       3.70174000      23.02830000      -1.33941600      -0.36328100      -0.14728300
Zr       3.68983000       3.70173000      25.24836000      -1.33831500      -0.36411000       0.14920700
Zr       0.80833000       1.38220000      15.22259000       1.19052600       0.13798000       0.00169000
Zr       0.84381000       1.46482000      10.35432000      -0.25147900      -1.29168100     -12.18670200
60
Lattice="5.313 0.0 0.0 -0.813881 5.081231 0.0 0.0 0.0 45.674183" Properties=species:S:1:pos:R:3:forces:R:3 energy=-560.5752937 stress="26.16083 -18.6469 5.57318 -18.6469 67.29612 -4.46397 5.57318 -4.46397 39.9658" pbc="T T T"
O        2.87777000       4.73707000      23.72387000      -0.97768400      -0.01197500      -0.72291100
O        0.22128000       4.73708000      24.55289000      -0.97581800      -0.01248800       0.72256800
O        4.27784000       0.34415000      21.12130000       0.97581800       0.01248800      -0.72256800
O        2.00936000       2.36865000      24.21621000       1.13265300      -0.73662100      -0.33501400
O        2.48976000       2.71258000      21.45797000      -1.13265300       0.73662100       0.33501400
O       -0.16679000       2.71261000      21.61372000      -1.13208100       0.73747100      -0.33155700
O        4.66591000       2.36862000      24.06047000       1.13208100      -0.73747100       0.33155700
O        1.62138000       0.34420000      27.15535000       0.97694000       0.01419400       0.72392100
O        2.87799000       4.73723000      28.92912000      -0.96792600      -0.01770400      -0.70674400
O        0.22114000       4.73648000      29.75700000      -1.01032500      -0.02034600       0.71113300
O       -0.17568000       2.70708000      32.02411000      -1.15199500       0.78499200       0.06786000
O        4.27786000       0.34415000      26.32634000       0.97915200       0.01390300      -0.72373000
O        2.48975000       2.71266000      26.66300000      -1.13173700       0.73671200       0.33111000
O       -0.16684000       2.71260000      26.81875000      -1.13187800       0.73577300      -0.33390100
O        4.66548000       2.36853000      29.26533000       1.12327500      -0.74379100       0.32485300
O        1.62369000       0.35005000      32.35262000       1.33864700      -0.23442300       1.10444300
O        2.93326000       4.70098000      34.24846000      -3.17385100       4.38519900      -4.82702100
O        0.18616000       4.69071000      35.00309000      -0.79326000      -0.79169100       0.63226900
O        4.27650000       0.33998000      31.53459000       0.71794200       0.12276800      -0.11283400
O        2.03445000       2.38300000      34.77784000       1.39777000       0.16374000      -0.70512900
O        2.49547000       2.71197000      31.86665000      -1.00998200       0.67422900       0.63200800
O        2.00999000       2.36895000      29.42135000       1.14101800      -0.73467800      -0.26496100
O        1.62135000       0.34416000      21.95031000       0.97768400       0.01197500       0.72291100
O        4.61248000       2.41989000      34.50065000       1.88446800      -3.00972100      -2.20897100
O        1.56585000       0.38025000      11.42572000       3.17385100      -4.38519900       4.82702100
O        2.46467000       2.69823000      10.89634000      -1.39777000      -0.16374000       0.70512900
O       -0.11336000       2.66134000      11.17353000      -1.88446800       3.00972100       2.20897100
O        4.67480000       2.37415000      13.65007000       1.15199500      -0.78499200      -0.06786000
O        4.66596000       2.36863000      18.85543000       1.13187800      -0.73577300       0.33390100
O        0.22262000       4.74125000      14.13960000      -0.71794200      -0.12276800       0.11283400
O        2.87543000       4.73118000      13.32156000      -1.33864700       0.23442300      -1.10444300
O        2.00364000       2.36926000      13.80754000       1.00998200      -0.67422900      -0.63200800
O        1.62113000       0.34400000      16.74506000       0.96792600       0.01770400       0.70674400
O        4.31296000       0.39053000      10.67109000       0.79326000       0.79169100      -0.63226900
O        0.22126000       4.73708000      19.34785000      -0.97915200      -0.01390300       0.72373000
O        4.27798000       0.34475000      15.91719000       1.01032500       0.02034600      -0.71113300
O        2.00937000       2.36857000      19.01118000       1.13173700      -0.73671200      -0.33111000
O        2.48913000       2.71228000      16.25283000      -1.14101800       0.73467800       0.26496100
O       -0.16636000       2.71270000      16.40885000      -1.12327500       0.74379100      -0.32485300
O        2.87774000       4.73704000      18.51883000      -0.97694000      -0.01419400      -0.72392100
Zr       3.46747000       1.41735000      33.06820000       0.45019600      -0.21811200       0.00285400
Zr       1.00638000       3.67419000      33.48836000      -1.37964500      -0.25362300       2.21111900
Zr       3.64278000       3.63905000      35.42184000       1.51784000      -0.84201400       4.87248300
Zr       0.83333000       1.38001000      30.83581000       0.68794400       0.09496300       0.00898400
Zr       3.49274000       1.40704000      12.18582000       1.37964500       0.25362300      -2.21111900
Zr       1.03165000       3.66388000      12.60598000      -0.45019600       0.21811200      -0.00285400
Zr       3.66579000       3.70123000      14.83837000      -0.68794400      -0.09496300      -0.00898400
Zr       0.83175000       1.38142000      20.42127000       0.73686500       0.24401100      -0.03756600
Zr       3.66738000       3.69985000      20.04794000      -0.73670300      -0.24279900       0.03372000
Zr       1.01088000       3.69969000      17.81889000      -0.73974800      -0.24105300      -0.03124100
Zr       3.48823000       1.38154000      27.85530000       0.73974800       0.24105300       0.03124100
Zr       1.01076000       3.70001000      28.22906000      -0.74339800      -0.23559600      -0.03538500
Zr       3.66805000       3.69789000      30.45666000      -0.61303400      -0.11092900      -0.10228400
Zr       0.83174000       1.38138000      25.62624000       0.73670300       0.24279900      -0.03372000
Zr       3.48836000       1.38122000      17.44512000       0.74339800       0.23559600       0.03538500
Zr       3.48824000       1.38141000      22.65043000       0.73761600       0.24264400       0.03636800
Zr       1.01088000       3.69982000      23.02375000      -0.73761600      -0.24264400      -0.03636800
Zr       3.66737000       3.69981000      25.25291000      -0.73686500      -0.24401100       0.03756600
Zr       0.83107000       1.38334000      15.21753000       0.61303400       0.11092900       0.10228400
Zr       0.85633000       1.44218000      10.25234000      -1.51784000       0.84201400      -4.87248300
60
Lattice="5.313 0.0 0.0 -0.813881 5.081231 0.0 0.0 0.0 45.674183" Properties=species:S:1:pos:R:3:forces:R:3 energy=-563.30165378 stress="20.98648 -14.34717 1.0841 -14.34717 50.30303 -0.07067 1.0841 -0.07067 23.70146" pbc="T T T"
O        2.80098000       4.76038000      23.64931000      -0.10958600      -0.85417200       0.48659900
O        0.14458000       4.76037000      24.62747000      -0.11009900      -0.85465800      -0.48457400
O        4.35454000       0.32086000      21.04671000       0.11009900       0.85465800       0.48457400
O        2.09410000       2.34577000      24.14164000       0.71038300      -0.69839600       0.86261100
O        2.40502000       2.73546000      21.53255000      -0.71038300       0.69839600      -0.86261100
O       -0.25153000       2.73554000      21.53930000      -0.71125000       0.69637800       0.85585800
O        4.75065000       2.34569000      24.13488000       0.71125000      -0.69637800      -0.85585800
O        1.69815000       0.32101000      27.22998000       0.11058500       0.85313300      -0.47941100
O        2.80175000       4.76036000      28.85541000      -0.12676500      -0.80699000       0.44381700
O        0.14280000       4.75912000      29.83063000      -0.16275900      -0.81101400      -0.47136800
O       -0.26568000       2.72946000      31.96805000      -0.26115000       0.85512400       1.24748800
O        4.35472000       0.32092000      26.25172000       0.11185300       0.84868400       0.48539900
O        2.40505000       2.73558000      26.73741000      -0.71525000       0.69901400      -0.85429900
O       -0.25159000       2.73545000      26.74425000      -0.71027900       0.70063000       0.86253700
O        4.74960000       2.34527000      29.33937000       0.76775300      -0.74347200      -0.84097700
O        1.71804000       0.31843000      32.44076000      -0.28671800      -0.12252200       0.37128900
O        2.78385000       4.90650000      34.04352000       0.96198800      -5.02153500       4.29619300
O        0.10053000       4.65582000      35.09329000      -1.74754600      -0.32465900       2.07064600
O        4.34082000       0.31966000      31.48934000       0.31932900       0.67651400       0.23382800
O        2.14355000       2.40809000      34.76083000       1.46784900       0.60606100       0.92301100
O        2.41912000       2.73171000      31.95407000      -1.35365200       1.15392100      -0.62875500
O        2.09542000       2.34630000      29.35003000       0.68334800      -0.68816200       0.86746400
O        1.69814000       0.32085000      22.02487000       0.10958600       0.85417200      -0.48659900
O        4.70522000       2.31880000      34.47437000       0.42405000       0.34990100       1.11551100
O        1.71527000       0.17473000      11.63067000      -0.96198800       5.02153500      -4.29619300
O        2.35557000       2.67314000      10.91336000      -1.46784900      -0.60606100      -0.92301100
O       -0.20610000       2.76243000      11.19982000      -0.42405000      -0.34990100      -1.11551100
O        4.76480000       2.35177000      13.70614000       0.26115000      -0.85512400      -1.24748800
O        4.75071000       2.34578000      18.92993000       0.71027900      -0.70063000      -0.86253700
O        0.15830000       4.76157000      14.18485000      -0.31932900      -0.67651400      -0.23382800
O        2.78108000       4.76280000      13.23343000       0.28671800       0.12252200      -0.37128900
O        2.08000000       2.34952000      13.72011000       1.35365200      -1.15392100       0.62875500
O        1.69737000       0.32087000      16.81877000       0.12676500       0.80699000      -0.44381700
O        4.39859000       0.42541000      10.58089000       1.74754600       0.32465900      -2.07064600
O        0.14440000       4.76031000      19.42246000      -0.11185300      -0.84868400      -0.48539900
O        4.35631000       0.32211000      15.84356000       0.16275900       0.81101400       0.47136800
O        2.09407000       2.34565000      18.93677000       0.71525000      -0.69901400       0.85429900
O        2.40370000       2.73493000      16.32415000      -0.68334800       0.68816200      -0.86746400
O       -0.25048000       2.73596000      16.33481000      -0.76775300       0.74347200       0.84097700
O        2.80097000       4.76023000      18.44421000      -0.11058500      -0.85313300       0.47941100
Zr       3.45048000       1.42273000      33.06662000       0.64371300       1.14860700      -3.09079700
Zr       0.96872000       3.65242000      33.62120000      -0.20628300       0.36679200      -2.51121600
Zr       3.72700000       3.57328000      35.51958000      -0.28073800       1.56513200      -3.57765600
Zr       0.83811000       1.38130000      30.84397000       0.84704500       0.41328400       0.72820700
Zr       3.53040000       1.42881000      12.05298000       0.20628300      -0.36679200       2.51121600
Zr       1.04864000       3.65850000      12.60756000      -0.64371300      -1.14860700       3.09079700
Zr       3.66101000       3.69993000      14.83021000      -0.84704500      -0.41328400      -0.72820700
Zr       0.83798000       1.39019000      20.42509000       0.99757000       0.29720000       0.17535800
Zr       3.66116000       3.69115000      20.04396000      -0.99776100      -0.30031600      -0.17106000
Zr       1.00453000       3.69100000      17.82305000      -0.98163000      -0.31391700       0.13387200
Zr       3.49459000       1.39023000      27.85113000       0.98163000       0.31391700      -0.13387200
Zr       1.00417000       3.69172000      28.23312000      -0.94443600      -0.37735000       0.20683000
Zr       3.66778000       3.69423000      30.44586000      -1.12617500      -0.11363100       0.37340200
Zr       0.83796000       1.39008000      25.63023000       0.99776100       0.30031600       0.17106000
Zr       3.49495000       1.38951000      17.44106000       0.94443600       0.37735000      -0.20683000
Zr       3.49450000       1.39011000      22.64656000       0.99689900       0.29705500      -0.17356300
Zr       1.00462000       3.69112000      23.02762000      -0.99689900      -0.29705500       0.17356300
Zr       3.66113000       3.69104000      25.24909000      -0.99757000      -0.29720000      -0.17535800
Zr       0.83134000       1.38700000      15.22832000       1.12617500       0.11363100      -0.37340200
Zr       0.77212000       1.50795000      10.15460000       0.28073800      -1.56513200       3.57765600
60
Lattice="5.313 0.0 0.0 -0.813881 5.081231 0.0 0.0 0.0 45.674183" Properties=species:S:1:pos:R:3:forces:R:3 energy=-564.20236901 stress="18.58412 -14.22852 0.756 -14.22852 49.97644 1.88287 0.756 1.88287 23.93011" pbc="T T T"
O        2.82967000       4.75168000      23.67717000      -0.45845900      -0.54671400       0.02541700
O        0.17323000       4.75167000      24.59961000      -0.45910700      -0.54896100      -0.02685200
O        4.32589000       0.32956000      21.07458000       0.45910700       0.54896100       0.02685200
O        2.06244000       2.35432000      24.16950000       0.86632400      -0.74480600       0.41554100
O        2.43668000       2.72692000      21.50468000      -0.86632400       0.74480600      -0.41554100
O       -0.21987000       2.72697000      21.56710000      -0.86485600       0.74209500       0.41671300
O        4.71899000       2.35426000      24.10708000       0.86485600      -0.74209500      -0.41671300
O        1.66947000       0.32967000      27.20209000       0.46038600       0.54662400      -0.02818300
O        2.83024000       4.75172000      28.88295000      -0.46856800      -0.51480700      -0.00287500
O        0.17207000       4.75066000      29.80312000      -0.50622600      -0.52009700      -0.02288000
O       -0.23205000       2.72110000      31.98899000      -0.56334400       0.86305900       0.83975400
O        4.32600000       0.32960000      26.27960000       0.45926900       0.54313500       0.02275200
O        2.43670000       2.72702000      26.70961000      -0.86572500       0.74323800      -0.41865500
O       -0.21993000       2.72691000      26.77209000      -0.86463000       0.74556000       0.41602700
O        4.71817000       2.35396000      29.31171000       0.89407900      -0.77147100      -0.42021500
O        1.68279000       0.33024000      32.40783000       0.43130000      -0.12209500       0.69102800
O        2.83967000       4.82972000      34.12009000       0.11045700      -2.15474900       1.87487100
O        0.13252000       4.66885000      35.05959000      -1.55030900      -0.54208400       1.65941000
O        4.31679000       0.32725000      31.50624000       0.48853500       0.49399500       0.08665400
O        2.10279000       2.39872000      34.76718000       1.49376700       0.40639300       0.36954300
O        2.44764000       2.72434000      31.92141000      -1.17104800       0.98207000      -0.20411500
O        2.06350000       2.35476000      29.37668000       0.84444900      -0.73786400       0.45307600
O        1.66945000       0.32956000      21.99701000       0.45845900       0.54671400      -0.02541700
O        4.67057000       2.35657000      34.48419000       0.81713300      -0.66985600       0.03409200
O        1.65945000       0.25151000      11.55410000      -0.11045700       2.15474900      -1.87487100
O        2.39633000       2.68252000      10.90700000      -1.49376700      -0.40639300      -0.36954300
O       -0.17145000       2.72466000      11.19000000      -0.81713300       0.66985600      -0.03409200
O        4.73117000       2.36013000      13.68519000       0.56334400      -0.86305900      -0.83975400
O        4.71905000       2.35432000      18.90210000       0.86463000      -0.74556000      -0.41602700
O        0.18233000       4.75398000      14.16794000      -0.48853500      -0.49399500      -0.08665400
O        2.81633000       4.75099000      13.26636000      -0.43130000       0.12209500      -0.69102800
O        2.05147000       2.35689000      13.75277000       1.17104800      -0.98207000       0.20411500
O        1.66888000       0.32951000      16.79123000       0.46856800       0.51480700       0.00287500
O        4.36659000       0.41238000      10.61459000       1.55030900       0.54208400      -1.65941000