60
Lattice="5.146 0.0 0.0 0.840294 7.390122 0.0 0.0 0.0 38.41044" Properties=species:S:1:pos:R:3:forces:R:3 energy=-542.19505758 stress="38.13733 -7.58827 -1.08813 -7.58827 64.72681 22.02338 -1.08813 22.02338 73.11816" pbc="T T T"
O        4.16387000       3.59364000      18.76959000       1.70351500      -0.55826400      -2.94315100
O        4.58402000       5.91982000      17.38989000       1.70502900       2.92160500       0.58011300
O        4.86769000       5.01995000      21.02055000      -1.70502900      -2.92160500      -0.58011300
O        2.01040000       4.93103000      18.18689000       0.30942500      -3.93764700      -1.05683000
O        2.29531000       6.00874000      20.22355000      -0.30942500       3.93764700       1.05683000
O        1.87516000       0.76077000      18.65837000      -0.30864300      -1.02232000      -3.93561200
O        1.59025000       2.78888000      19.75207000       0.30864300       1.02232000       3.93561200
O        4.44754000       3.62199000      23.33580000      -1.64010100       0.49873700       2.89483600
O        4.16387000       7.25961000      22.46453000       1.63889500      -0.49696000      -2.87615500
O        3.74373000       2.19568000      21.08484000       1.69482300       2.92359600       0.57312400
O        1.03486000       0.70260000      26.04826000       0.96507400      -0.79591200      -1.56222600
O        4.02739000       1.29580000      24.71549000      -1.54703400      -2.99405800      -0.59699300
O        1.45501000       2.28459000      23.91849000      -0.31108100       3.75978500       1.10847300
O        1.87516000       4.42675000      22.35331000      -0.34231600      -1.02517400      -4.00986900
O        1.59025000       6.45486000      23.44702000       0.32873800       1.13082100       3.96501200
O        4.44754000       7.28797000      27.03075000      -4.17739700       3.20243700       3.42645900
O        3.32358000       3.53547000      26.15948000       1.70681800      -1.39271600      -3.22495600
O        3.74373000       5.86165000      24.77979000       1.71651300       3.04084900       0.57037900
O        4.02739000       4.96178000      28.41044000      -2.76500400      -1.65288300       0.07621400
O        1.17011000       4.87286000      25.57679000       0.24385400      -3.90336200      -1.48158100
O        1.45501000       5.95057000      27.61344000       0.63677000       4.62149900       0.79189000
O        1.17011000       1.20689000      21.88184000       0.32111100      -3.94605100      -1.04083600
O        5.28783000       7.34613000      19.64085000      -1.70351500       0.55826400       2.94315100
O        0.74996000       2.73071000      27.14197000       2.10893900      -0.98127500       4.74837600
O        0.14183000       0.01418000      12.25096000      -1.70681800       1.39271600       3.22495600
O        3.13560000       6.06690000      12.83365000      -0.24385400       3.90336200       1.48158100
O        2.71545000       0.81893000      11.26848000      -2.10893900       0.98127500      -4.74837600
O        2.43055000       2.84704000      12.36218000      -0.96507400       0.79591200       1.56222600
O        2.43055000       6.51302000      16.05713000       0.34231600       1.02517400       4.00986900
O        5.42431000       5.97799000      10.00000000       2.76500400       1.65288300      -0.07621400
O        5.00417000       3.65180000      11.37969000       4.17739700      -3.20243700      -3.42645900
O        2.85069000       4.98920000      10.79700000      -0.63677000      -4.62149900      -0.79189000
O        5.28783000       3.68015000      15.94591000      -1.63889500       0.49696000       2.87615500
O        5.70798000       5.07811000      13.63065000      -1.71651300      -3.04084900      -0.57037900
O        4.58402000       2.25384000      13.69495000       1.54703400       2.99405800       0.59699300
O        4.86769000       1.35397000      17.32560000      -1.69482300      -2.92359600      -0.57312400
O        2.01040000       1.26505000      14.49195000       0.31108100      -3.75978500      -1.10847300
O        2.29531000       2.34276000      16.52860000      -0.32111100       3.94605100       1.04083600
O        2.71545000       4.48491000      14.96342000      -0.32873800      -1.13082100      -3.96501200
O        5.00417000       7.31778000      15.07464000       1.64010100      -0.49873700      -2.89483600
Zr       5.11393000       2.67758000      25.39463000      -0.07155500       1.65132800      -0.84074800
Zr       1.81689000       0.75573000      27.79560000       0.60842300      -3.66474800      -3.24085400
Zr       2.23704000       4.20370000      27.54656000       1.56265800       2.82909100       2.27896100
Zr       5.53408000       6.61973000      25.64366000      -0.12045100       0.17868300       0.09353700
Zr       1.64852000       2.79392000      10.61484000      -0.60842300       3.66474800       3.24085400
Zr       3.49748000       0.87206000      13.01582000       0.07155500      -1.65132800       0.84074800
Zr       3.91762000       4.32004000      12.76678000       0.12045100      -0.17868300      -0.09353700
Zr       1.22838000       6.67790000      18.25377000       0.12728700       1.37819900      -0.92464200
Zr       3.07733000       0.59589000      16.46172000      -0.09999600      -1.42993800       0.88916000
Zr       3.49748000       4.53804000      16.71076000      -0.13649000      -0.88994900       1.38077100
Zr       0.80823000       6.40173000      21.69968000       0.13649000       0.88994900      -1.38077100
Zr       2.65718000       4.47987000      24.10065000      -0.20655900      -0.94091700       1.69919600
Zr       2.23704000       0.53773000      23.85162000       0.12110500      -1.53542900       0.57056600
Zr       0.38808000       2.95375000      21.94872000       0.09999600       1.42993800      -0.88916000
Zr       1.64852000       6.45989000      14.30979000       0.20655900       0.94091700      -1.69919600
Zr       0.80823000       2.73575000      18.00473000       0.12034400       0.90841900      -1.35622700
Zr       2.65718000       0.81390000      20.40571000      -0.12034400      -0.90841900       1.35622700
Zr       3.07733000       4.26187000      20.15667000      -0.12728700      -1.37819900       0.92464200
Zr       1.22838000       3.01192000      14.55883000      -0.12110500       1.53542900      -0.57056600
Zr       2.06867000       6.73606000      10.86388000      -1.56265800      -2.82909100      -2.27896100
60
Lattice="5.146 0.0 0.0 0.840294 7.390122 0.0 0.0 0.0 38.41044" Properties=species:S:1:pos:R:3:forces:R:3 energy=-558.36072008 stress="66.12649 -3.44375 -12.90572 -3.44375 22.25731 10.66287 -12.90572 10.66287 29.54805" pbc="T T T"
O        4.24606000       3.56670000      18.62760000      -0.41747900       0.44473900      -0.60574700
O        4.66628000       6.06077000      17.41788000      -0.40441100       0.50417300      -0.39910600
O        4.78543000       4.87900000      20.99256000       0.40441100      -0.50417300       0.39910600
O        2.02533000       4.74107000      18.13591000      -1.28178200      -0.13212500       1.09309900
O        2.28038000       6.19870000      20.27453000       1.28178200       0.13212500      -1.09309900
O        1.86027000       0.71145000      18.46850000       1.28800900       1.11421900      -0.08386300
O        1.60514000       2.83820000      19.94194000      -1.28800900      -1.11421900       0.08386300
O        4.36842000       3.64605000      23.47546000       0.27026100      -0.20294300       0.59118200
O        4.24294000       7.23564000      22.32578000      -0.33382100       0.32900300      -0.64215500
O        3.82549000       2.33672000      21.11249000      -0.44138700       0.55192000      -0.44752600
O        1.08142000       0.66421000      25.97290000      -0.92758200      -0.03413200      -4.81431000
O        3.95276000       1.15136000      24.68669000       0.82130700      -0.99932700       0.72116900
O        1.44000000       2.46598000      23.97197000       1.21205500      -0.05223200      -0.98134800
O        1.85864000       4.37729000      22.15987000       1.35465400       1.19630300      -0.02204600
O        1.60611000       6.50941000      23.63830000      -1.36917600      -1.03365300       0.58651100
O        3.40572000       0.05234000      27.19605000       6.15879400      -1.20321100      -1.82608800
O        3.40592000       3.46828000      26.00390000      -1.04589400       0.98486000       0.05772700
O        3.82654000       6.00835000      24.80730000      -0.07998600       0.60915900       0.11606400
O        3.89400000       4.88204000      28.41412000      -0.69193200      -0.79940600       0.66322100
O        1.18187000       4.68456000      25.50531000      -1.63190800       0.19068300       1.01738700
O        1.48573000       6.17353000      27.65164000       0.19655600       1.57677100      -0.36823200
O        1.18560000       1.01652000      21.83163000      -1.28141600      -0.18971800       1.04226700
O        5.20565000       7.37306000      19.78284000       0.41747900      -0.44473900       0.60574700
O        0.85170000       2.68337000      27.37104000       1.48970100      -0.52024700       0.96394700
O        0.05949000       0.08136000      12.40654000       1.04589400      -0.98486000      -0.05772700
O        3.12383000       6.25521000      12.90513000       1.63190800      -0.19068300      -1.01738700
O        2.61371000       0.86627000      11.03940000      -1.48970100       0.52024700      -0.96394700
O        2.38399000       2.88544000      12.43755000       0.92758200       0.03413200       4.81431000
O        2.44706000       6.56248000      16.25057000      -1.35465400      -1.19630300       0.02204600
O        5.55771000       6.05773000       9.99632000       0.69193200       0.79940600      -0.66322100
O        5.20570000       3.49731000      11.21439000      -6.15879400       1.20321100       1.82608800
O        2.81998000       4.76624000      10.75880000      -0.19655600      -1.57677100       0.36823200
O        5.20877000       3.70413000      16.08466000       0.33382100      -0.32900300       0.64215500
O        5.62517000       4.93142000      13.60314000       0.07998600      -0.60915900      -0.11606400
O        4.65865000       2.39828000      13.72375000      -0.82130700       0.99932700      -0.72116900
O        4.78592000       1.21293000      17.29795000       0.44138700      -0.55192000       0.44752600
O        2.02541000       1.08367000      14.43847000      -1.21205500       0.05223200       0.98134800
O        2.27981000       2.53313000      16.57881000       1.28141600       0.18971800      -1.04226700
O        2.69959000       4.43036000      14.77214000       1.36917600       1.03365300      -0.58651100
O        5.08329000       7.29372000      14.93499000      -0.27026100       0.20294300      -0.59118200
Zr       5.11048000       2.75725000      25.35407000       1.01373800      -1.09317300       2.17219700
Zr       1.84624000       0.57893000      27.63925000      -6.29686200       1.35920100       4.36887000
Zr       2.31242000       4.34019000      27.65651000      -0.13565400       0.18032400      -1.29413100
Zr       5.52827000       6.62835000      25.64818000       0.39311900      -0.25419300       1.41811800
Zr       1.61917000       2.97071000      10.77119000       6.29686200      -1.35920100      -4.36887000
Zr       3.50093000       0.79240000      13.05638000      -1.01373800       1.09317300      -2.17219700
Zr       3.92344000       4.31142000      12.76226000      -0.39311900       0.25419300      -1.41811800
Zr       1.23452000       6.74439000      18.20916000       0.16747700      -1.04225800       0.83152000
Zr       3.07251000       0.52691000      16.50462000      -0.16804100       1.17551000      -1.06172500
Zr       3.49089000       4.49511000      16.77737000      -0.17358600       0.88172300      -1.02555200
Zr       0.81481000       6.44466000      21.63307000       0.17358600      -0.88172300       1.02555200
Zr       2.64722000       4.43448000      24.18263000      -0.00318800       0.18607900      -1.44200200
Zr       2.24288000       0.46365000      23.87914000       0.11630000       1.61771300      -0.92792800
Zr       0.39291000       3.02274000      21.90582000       0.16804100      -1.17551000       1.06172500
Zr       1.65849000       6.50529000      14.22781000       0.00318800      -0.18607900       1.44200200
Zr       0.81403000       2.77957000      17.93930000       0.20130600      -0.95549400       1.13000300
Zr       2.65138000       0.77007000      20.47114000      -0.20130600       0.95549400      -1.13000300
Zr       3.07119000       4.19538000      20.20128000      -0.16747700       1.04225800      -0.83152000
Zr       1.22253000       3.08599000      14.53130000      -0.11630000      -1.61771300       0.92792800
Zr       1.99328000       6.59958000      10.75394000       0.13565400      -0.18032400       1.29413100
60
Lattice="5.146 0.0 0.0 0.840294 7.390122 0.0 0.0 0.0 38.41044" Properties=species:S:1:pos:R:3:forces:R:3 energy=-558.68742005 stress="51.42713 -3.36871 -11.42626 -3.36871 21.34235 10.52453 -11.42626 10.52453 28.1526" pbc="T T T"
O        4.23587000       3.57004000      18.64519000      -0.17402100       0.33650600      -0.87459700
O        4.65608000       6.04330000      17.41441000      -0.16209000       0.78289900      -0.29490700
O        4.79562000       4.89647000      20.99603000       0.16209000      -0.78289900       0.29490700
O        2.02348000       4.76461000      18.14223000      -1.11900800      -0.46666700       0.81223400
O        2.28223000       6.17516000      20.26821000       1.11900800       0.46666700      -0.81223400
O        1.86211000       0.71756000      18.49203000       1.12334900       0.83295600      -0.42532200
O        1.60330000       2.83209000      19.91841000      -1.12334900      -0.83295600       0.42532200
O        4.37822000       3.64307000      23.45815000       0.06317700      -0.13748200       0.86053200
O        4.23314000       7.23861000      22.34297000      -0.10262000       0.23889500      -0.91798000
O        3.81536000       2.31924000      21.10906000      -0.19779700       0.82531700      -0.33583500
O        1.07565000       0.66896000      25.98223000      -0.67423200      -0.15524800      -4.30813000
O        3.96201000       1.16926000      24.69026000       0.57875300      -1.19862700       0.57274000
O        1.44186000       2.44350000      23.96534000       1.05958400       0.27675800      -0.70712500
O        1.86069000       4.38342000      22.18384000       1.18501000       0.90083300      -0.35952800
O        1.60415000       6.50265000      23.61460000      -1.18716800      -0.76275800       0.84468200
O        3.43069000       0.03320000      27.17557000       3.68352100      -0.31959200      -1.02374800
O        3.39572000       3.47661000      26.02318000      -0.69630900       0.70481900      -0.31431900
O        3.81628000       5.99018000      24.80389000       0.12997300       0.91470300       0.15060700
O        3.91053000       4.89192000      28.41366000      -1.40352300      -1.08810100       0.38119400
O        1.18041000       4.70789000      25.51417000      -1.40477700      -0.21675400       0.67160600
O        1.48192000       6.14590000      27.64691000       0.33771700       2.16160900      -0.29415000
O        1.18368000       1.04011000      21.83785000      -1.11669900      -0.51479800       0.76460000
O        5.21583000       7.36973000      19.76525000       0.17402100      -0.33650600       0.87459700
O        0.83910000       2.68924000      27.34266000       1.51453600      -0.65584400       1.24737400
O        0.06969000       0.07304000      12.38726000       0.69630900      -0.70481900       0.31431900
O        3.12529000       6.23188000      12.89627000       1.40477700       0.21675400      -0.67160600
O        2.62632000       0.86041000      11.06778000      -1.51453600       0.65584400      -1.24737400
O        2.38976000       2.88068000      12.42821000       0.67423200       0.15524800       4.30813000
O        2.44502000       6.55635000      16.22660000      -1.18501000      -0.90083300       0.35952800
O        5.54118000       6.04785000       9.99678000       1.40352300       1.08810100      -0.38119400
O        5.18073000       3.51645000      11.23487000      -3.68352100       0.31959200       1.02374800
O        2.82378000       4.79387000      10.76353000      -0.33771700      -2.16160900       0.29415000
O        5.21856000       3.70116000      16.06747000       0.10262000      -0.23889500       0.91798000
O        5.63543000       4.94959000      13.60655000      -0.12997300      -0.91470300      -0.15060700
O        4.64941000       2.38039000      13.72018000      -0.57875300       1.19862700      -0.57274000
O        4.79605000       1.23040000      17.30138000       0.19779700      -0.82531700       0.33583500
O        2.02355000       1.10614000      14.44510000      -1.05958400      -0.27675800       0.70712500
O        2.28173000       2.50954000      16.57259000       1.11669900       0.51479800      -0.76460000
O        2.70156000       4.43712000      14.79584000       1.18716800       0.76275800      -0.84468200
O        5.07349000       7.29670000      14.95229000      -0.06317700       0.13748200      -0.86053200
Zr       5.11091000       2.74738000      25.35909000       0.77698100      -0.78368900       1.97484900
Zr       1.84261000       0.60084000      27.65863000      -4.29870200       0.15062000       2.96580400
Zr       2.30308000       4.32328000      27.64288000       0.67675400       0.71772000      -0.79865100
Zr       5.52899000       6.62728000      25.64762000       0.19918800      -0.31539300       1.42291200
Zr       1.62281000       2.94881000      10.75181000       4.29870200      -0.15062000      -2.96580400
Zr       3.50050000       0.80227000      13.05135000      -0.77698100       0.78368900      -1.97484900
Zr       3.92272000       4.31248000      12.76282000      -0.19918800       0.31539300      -1.42291200
Zr       1.23376000       6.73615000      18.21469000       0.15181100      -0.83751300       0.68930000
Zr       3.07310000       0.53546000      16.49930000      -0.15628900       0.95258200      -0.88608600
Zr       3.49171000       4.50043000      16.76912000      -0.16377800       0.73868800      -0.82580300
Zr       0.81400000       6.43934000      21.64132000       0.16377800      -0.73868800       0.82580300
Zr       2.64845000       4.44011000      24.17247000      -0.04625300       0.11706500      -1.13123200
Zr       2.24216000       0.47283000      23.87573000       0.12263700       1.31510900      -0.80506700
Zr       0.39231000       3.01419000      21.91114000       0.15628900      -0.95258200       0.88608600
Zr       1.65725000       6.49966000      14.23797000       0.04625300      -0.11706500       1.13123200
Zr       0.81331000       2.77414000      17.94741000       0.18141500      -0.79693300       0.91612400
Zr       2.65210000       0.77550000      20.46303000      -0.18141500       0.79693300      -0.91612400
Zr       3.07195000       4.20362000      20.19575000      -0.15181100       0.83751300      -0.68930000
Zr       1.22326000       3.07682000      14.53471000      -0.12263700      -1.31510900       0.80506700
Zr       2.00262000       6.61649000      10.76756000      -0.67675400      -0.71772000       0.79865100
60
Lattice="5.146 0.0 0.0 0.840294 7.390122 0.0 0.0 0.0 38.41044" Properties=species:S:1:pos:R:3:forces:R:3 energy=-562.12005794 stress="34.3233 8.52496 2.93333 8.52496 16.46339 5.25252 2.93333 5.25252 16.35507" pbc="T T T"
O        4.25131000       3.57813000      18.56323000      -0.70067500       0.42926900       0.16080800
O        4.67210000       6.12065000      17.40858000      -0.70871800      -0.00203100      -0.47843500
O        4.77960000       4.81912000      21.00186000       0.70871800       0.00203100       0.47843500
O        1.97512000       4.68804000      18.16578000      -0.66042700       0.08263800       0.84375900
O        2.33058000       6.25172000      20.24466000       0.66042700      -0.08263800      -0.84375900
O        1.91068000       0.74257000      18.41744000       0.65028300       0.80308100      -0.00277100
O        1.55473000       2.80707000      19.99300000      -0.65028300      -0.80308100       0.00277100
O        4.35845000       3.64352000      23.53878000       0.85112300      -0.58877000       0.27574500
O        4.25104000       7.24296000      22.25990000      -0.65912200       0.43884200      -0.03535200
O        3.82956000       2.39861000      21.10121000      -0.61088100      -0.05108100      -0.36769500
O        1.05732000       0.65062000      25.75788000       1.03998700       0.89201900       1.64772400
O        3.96778000       1.07135000      24.70893000       0.75754700       0.62228400       0.40766800
O        1.48740000       2.50866000      23.94745000       0.35654100       0.27893600      -0.46082100
O        1.91169000       4.41158000      22.11132000       0.60329700       0.63800300       0.15804300
O        1.55285000       6.48245000      23.70933000      -0.36599200      -0.83812300      -0.30045300
O        3.54606000       0.06257000      27.17492000      -2.69334400       1.44355900       1.99824800
O        3.38663000       3.49045000      25.96367000      -0.48335100       0.69933100       1.07387800
O        3.84619000       6.07538000      24.81889000      -1.00714400      -0.52719500      -0.31366900
O        3.80615000       4.81781000      28.43265000       3.41369000       0.54261500       2.89481200
O        1.11770000       4.64356000      25.52522000      -0.76010700      -0.14289500       1.38602600
O        1.50664000       6.31169000      27.64405000      -0.13624500      -0.72826500       0.68743700
O        1.13559000       0.96116000      21.85939000      -0.61956500       0.20319700       0.73184100
O        5.20040000       7.36164000      19.84721000       0.70067500      -0.42926900      -0.16080800
O        0.93960000       2.64477000      27.46719000       1.07638400      -1.26898600       1.14986900
O        0.07878000       0.05919000      12.44678000       0.48335100      -0.69933100      -1.07387800
O        3.18800000       6.29621000      12.88522000       0.76010700       0.14289500      -1.38602600
O        2.52582000       0.90487000      10.94325000      -1.07638400       1.26898600      -1.14986900
O        2.40810000       2.89902000      12.65256000      -1.03998700      -0.89201900      -1.64772400
O        2.39401000       6.52819000      16.29913000      -0.60329700      -0.63800300      -0.15804300
O        5.64555000       6.12196000       9.97779000      -3.41369000      -0.54261500      -2.89481200
O        5.06536000       3.48708000      11.23552000       2.69334400      -1.44355900      -1.99824800
O        2.79906000       4.62808000      10.76639000       0.13624500       0.72826500      -0.68743700
O        5.20066000       3.69681000      16.15054000       0.65912200      -0.43884200       0.03535200
O        5.60551000       4.86439000      13.59155000       1.00714400       0.52719500       0.31366900
O        4.64363000       2.47830000      13.70151000      -0.75754700      -0.62228400      -0.40766800
O        4.78186000       1.15103000      17.30923000       0.61088100       0.05108100       0.36769500
O        1.97801000       1.04098000      14.46299000      -0.35654100      -0.27893600       0.46082100
O        2.32982000       2.58848000      16.55105000       0.61956500      -0.20319700      -0.73184100
O        2.75285000       4.45732000      14.70111000       0.36599200       0.83812300       0.30045300
O        5.09326000       7.29625000      14.87166000      -0.85112300       0.58877000      -0.27574500
Zr       5.14647000       2.73341000      25.44034000       0.32558500      -1.27427200      -0.05571300
Zr       1.64880000       0.55710000      27.75322000       2.38877000       1.67126900      -3.37021900
Zr       2.35659000       4.39628000      27.63691000      -3.94159800      -1.91944600      -4.11954800
Zr       5.53669000       6.61492000      25.71586000      -0.86140300       0.05790800      -1.16618400
Zr       1.81661000       2.99254000      10.65722000      -2.38877000      -1.67126900       3.37021900
Zr       3.46494000       0.81624000      12.97010000      -0.32558500       1.27427200       0.05571300
Zr       3.91501000       4.32484000      12.69458000       0.86140300      -0.05790800       1.16618400
Zr       1.24266000       6.71586000      18.23430000       0.00847900      -0.46506100       0.81419800
Zr       3.06436000       0.56044000      16.46995000       0.00528500       0.46559900      -0.66756200
Zr       3.48211000       4.52284000      16.74942000      -0.14723300       0.68108800      -0.82045100
Zr       0.82360000       6.41693000      21.66102000       0.14723300      -0.68108800       0.82045100
Zr       2.64341000       4.43257000      24.14281000      -0.10507800       1.37104700      -0.79063300
Zr       2.24960000       0.51341000      23.84577000       0.10804400      -0.13444300      -0.60339000
Zr       0.40105000       2.98920000      21.94049000      -0.00528500      -0.46559900       0.66756200
Zr       1.66229000       6.50720000      14.26763000       0.10507800      -1.37104700       0.79063300
Zr       0.82352000       2.74925000      17.97170000       0.03212700      -0.64808500       0.41580900
Zr       2.64189000       0.80040000      20.43874000      -0.03212700       0.64808500      -0.41580900
Zr       3.06304000       4.22391000      20.17614000      -0.00847900       0.46506100      -0.81419800
Zr       1.21581000       3.03624000      14.56467000      -0.10804400       0.13444300       0.60339000
Zr       1.94911000       6.54349000      10.77353000       3.94159800       1.91944600       4.11954800
60
Lattice="5.146 0.0 0.0 0.840294 7.390122 0.0 0.0 0.0 38.41044" Properties=species:S:1:pos:R:3:forces:R:3 energy=-562.61242821 stress="33.83198 5.79156 -1.59522 5.79156 14.70323 5.65352 -1.59522 5.65352 17.13768" pbc="T T T"
O        4.24716000       3.57596000      18.58527000      -0.56041100       0.41210400      -0.13175200
O        4.66780000       6.09986000      17.41015000      -0.55977000       0.22199800      -0.43368900
O        4.78391000       4.83991000      21.00029000       0.55977000      -0.22199800       0.43368900
O        1.98812000       4.70863000      18.15945000      -0.78724800      -0.07769200       0.83324100
O        2.31758000       6.23114000      20.25099000       0.78724800       0.07769200      -0.83324100
O        1.89763000       0.73585000      18.43749000       0.77702300       0.81098400      -0.12762000
O        1.56779000       2.81380000      19.97295000      -0.77702300      -0.81098400       0.12762000
O        4.36376000       3.64340000      23.51710000       0.63254000      -0.46993800       0.44729200
O        4.24623000       7.24179000      22.28223000      -0.50688600       0.39070300      -0.29096700
O        3.82574000       2.37728000      21.10332000      -0.49965900       0.20009200      -0.36652400
O        1.06225000       0.65555000      25.81820000       0.83541900       0.65607700       0.37529800
O        3.96623000       1.09767000      24.70391000       0.75143100       0.16109200       0.46210800
O        1.47516000       2.49114000      23.95226000       0.52587700       0.31098600      -0.52030100
O        1.89798000       4.40401000      22.13081000       0.75973700       0.70417800       0.00479100
O        1.56664000       6.48788000      23.68386000      -0.57719400      -0.78535400       0.03360200
O        3.51504000       0.05467000      27.17509000      -1.79057700       1.28821100       1.43309900
O        3.38907000       3.48673000      25.97966000      -0.53384100       0.70874700       0.68075800
O        3.83815000       6.05247000      24.81486000      -0.74300700      -0.17079700      -0.22779500
O        3.83421000       4.83773000      28.42755000       1.72722100       0.02136400       1.95692000
O        1.13456000       4.66085000      25.52225000      -0.92140200      -0.19210800       1.21092600
O        1.50000000       6.26712000      27.64482000       0.24326300       0.46955100       0.45231700
O        1.14852000       0.98239000      21.85360000      -0.75878200      -0.00274000       0.74172200
O        5.20455000       7.36381000      19.82517000       0.56041100      -0.41210400       0.13175200
O        0.91258000       2.65673000      27.43371000       1.26715500      -1.22323500       1.23162600
O        0.07634000       0.06292000      12.43078000       0.53384100      -0.70874700      -0.68075800
O        3.17114000       6.27891000      12.88819000       0.92140200       0.19210800      -1.21092600
O        2.55284000       0.89292000      10.97673000      -1.26715500       1.22323500      -1.23162600
O        2.40317000       2.89409000      12.59224000      -0.83541900      -0.65607700      -0.37529800
O        2.40772000       6.53576000      16.27963000      -0.75973700      -0.70417800      -0.00479100
O        5.61749000       6.10203000       9.98289000      -1.72722100      -0.02136400      -1.95692000
O        5.09637000       3.49497000      11.23535000       1.79057700      -1.28821100      -1.43309900
O        2.80571000       4.67265000      10.76562000      -0.24326300      -0.46955100      -0.45231700
O        5.20548000       3.69798000      16.12821000       0.50688600      -0.39070300       0.29096700
O        5.61356000       4.88730000      13.59558000       0.74300700       0.17079700       0.22779500