60
Lattice="5.205 0.0 0.0 0.0 5.313 0.0 0.0 0.0 44.620599" Properties=species:S:1:pos:R:3:forces:R:3 energy=-552.40130747 stress="93.18574 0.0 0.0 0.0 56.35375 8.15598 0.0 8.15598 64.82995" pbc="T T T"
O        3.57427000       1.31593000      24.45814000      -2.47559300      -1.92122400       1.41481600
O        4.23323000       3.97243000      24.45814000       2.47559300      -1.92122400       1.41481600
O        0.97177000       2.58416000      20.16246000      -2.47559300       1.92122400      -1.41481600
O        4.10258000       0.31384000      22.11670000      -3.51871100       1.97198800       0.63027300
O        1.10242000       0.92976000      22.50389000       3.51871100      -1.97198800      -0.63027300
O        1.50008000       3.58626000      22.50389000      -3.51871100      -1.97198800      -0.63027300
O        3.70492000       2.97034000      22.11670000       3.51871100       1.97198800       0.63027300
O        1.63073000       4.42678000      25.24369000       2.47466200       1.92339100      -1.41640800
O        3.57427000       0.50205000      29.53937000      -2.47490900      -1.92204500       1.40145700
O        4.23323000       3.15855000      29.53937000       2.47490900      -1.92204500       1.40145700
O        1.50008000       1.95850000      32.66636000      -3.58602800      -2.13372800      -0.20823800
O        0.97177000       1.77028000      25.24369000      -2.47466200       1.92339100      -1.41640800
O        1.10242000       0.11588000      27.58513000       3.52049200      -1.97391500      -0.62744500
O        1.50008000       2.77238000      27.58513000      -3.52049200      -1.97391500      -0.62744500
O        3.70492000       2.15646000      27.19794000       3.51913400       1.97426000       0.62834100
O        1.63073000       3.61290000      30.32493000       2.46797700       1.91945100      -1.38776500
O        3.57427000       5.00117000      34.62060000      -0.67463100      -1.20343900      -0.20538100
O        4.23323000       2.34467000      34.62060000       0.67463100      -1.20343900      -0.20538100
O        0.97177000       0.95640000      30.32493000      -2.46797700       1.91945100      -1.38776500
O        4.10258000       3.99907000      32.27917000      -3.67926700       1.69865400       0.40484400
O        1.10242000       4.61500000      32.66636000       3.58602800      -2.13372800      -0.20823800
O        4.10258000       4.81296000      27.19794000      -3.51913400       1.97426000       0.62834100
O        1.63073000       5.24066000      20.16246000       2.47559300       1.92122400      -1.41481600
O        3.70492000       1.34257000      32.27917000       3.67926700       1.69865400       0.40484400
O        1.63073000       1.55543000      10.00000000       0.67463100       1.20343900       0.20538100
O        1.10242000       2.55752000      12.34143000       3.67926700      -1.69865400      -0.40484400
O        1.50008000       5.21402000      12.34143000      -3.67926700      -1.69865400      -0.40484400
O        3.70492000       4.59810000      11.95424000       3.58602800       2.13372800       0.20823800
O        3.70492000       3.78422000      17.03547000       3.52049200       1.97391500       0.62744500
O        4.23323000       0.28719000      14.29567000       2.46797700      -1.91945100       1.38776500
O        3.57427000       2.94369000      14.29567000      -2.46797700      -1.91945100       1.38776500
O        4.10258000       1.94160000      11.95424000      -3.58602800       2.13372800       0.20823800
O        1.63073000       0.74155000      15.08123000       2.47490900       1.92204500      -1.40145700
O        0.97177000       4.21193000      10.00000000      -0.67463100       1.20343900       0.20538100
O        4.23323000       4.78631000      19.37690000       2.47466200      -1.92339100       1.41640800
O        0.97177000       3.39805000      15.08123000      -2.47490900       1.92204500      -1.40145700
O        4.10258000       1.12772000      17.03547000      -3.52049200       1.97391500       0.62744500
O        1.10242000       1.74364000      17.42266000       3.51913400      -1.97426000      -0.62834100
O        1.50008000       4.40014000      17.42266000      -3.51913400      -1.97426000      -0.62834100
O        3.57427000       2.12981000      19.37690000      -2.47466200      -1.92339100       1.41640800
Zr       2.42709000       0.28830000      31.31831000      -0.17225800      -1.66973100      -0.05572300
Zr       2.77791000       3.01277000      33.62722000       4.52842700       2.61450100       1.73941200
Zr       5.02959000       0.35627000      33.62722000      -4.52842700       2.61450100       1.73941200
Zr       0.17541000       2.94480000      31.31831000       0.17225800      -1.66973100      -0.05572300
Zr       2.42709000       3.54383000      10.99338000      -4.52842700      -2.61450100      -1.73941200
Zr       2.77791000       0.95529000      13.30229000       0.17225800       1.66973100       0.05572300
Zr       5.02959000       3.61179000      13.30229000      -0.17225800       1.66973100       0.05572300
Zr       0.17541000       4.57257000      21.15584000       0.32828100      -1.61748200      -0.13908000
Zr       5.02959000       2.79791000      18.38352000      -0.32640100       1.61787200       0.13911600
Zr       2.77791000       0.14141000      18.38352000       0.32640100       1.61787200       0.13911600
Zr       2.42709000       1.10218000      26.23707000      -0.32640100      -1.61787200      -0.13911600
Zr       2.77791000       3.82665000      28.54599000       0.34337300       1.61966800       0.13531200
Zr       5.02959000       1.17015000      28.54599000      -0.34337300       1.61966800       0.13531200
Zr       0.17541000       3.75868000      26.23707000       0.32640100      -1.61787200      -0.13911600
Zr       2.42709000       2.72995000      16.07461000      -0.34337300      -1.61966800      -0.13531200
Zr       2.42709000       1.91607000      21.15584000      -0.32828100      -1.61748200      -0.13908000
Zr       2.77791000       4.64053000      23.46476000       0.32828100       1.61748200       0.13908000
Zr       5.02959000       1.98403000      23.46476000      -0.32828100       1.61748200       0.13908000
Zr       0.17541000       0.07345000      16.07461000       0.34337300      -1.61966800      -0.13531200
Zr       0.17541000       0.88733000      10.99338000       4.52842700      -2.61450100      -1.73941200
60
Lattice="5.205 0.0 0.0 0.0 5.313 0.0 0.0 0.0 44.620599" Properties=species:S:1:pos:R:3:forces:R:3 energy=-563.62787966 stress="50.04128 0.0 0.0 0.0 33.74081 -27.09887 0.0 -27.09887 67.82632" pbc="T T T"
O        3.45484000       1.22324000      24.52639000      -0.10646500      -0.62199500      -0.52314600
O        4.35266000       3.87974000      24.52639000       0.10646500      -0.62199500      -0.52314600
O        0.85234000       2.67685000      20.09421000      -0.10646500       0.62199500       0.52314600
O        3.93283000       0.40897000      22.14711000       0.69992500       1.07208100      -1.14294600
O        1.27217000       0.83462000      22.47349000      -0.69992500      -1.07208100       1.14294600
O        1.33033000       3.49112000      22.47349000       0.69992500      -1.07208100       1.14294600
O        3.87467000       3.06547000      22.14711000      -0.69992500       1.07208100      -1.14294600
O        1.75011000       4.51957000      25.17536000       0.10664200       0.62490200       0.52306600
O        3.45488000       0.40932000      29.60698000      -0.07445700      -0.60678900      -0.47328100
O        4.35262000       3.06582000      29.60698000       0.07445700      -0.60678900      -0.47328100
O        1.32708000       1.85556000      32.65631000       1.21341900      -0.44482800       1.68856900
O        0.85239000       1.86307000      25.17536000      -0.10664200       0.62490200       0.52306600
O        1.27226000       0.02065000      27.55486000      -0.69944000      -1.06529400       1.13474200
O        1.33024000       2.67715000      27.55486000       0.69944000      -1.06529400       1.13474200
O        3.87469000       2.25170000      27.22825000      -0.70355700       1.07700800      -1.14379000
O        1.74979000       3.70550000      30.25798000       0.07480100       0.64591500       0.51504600
O        3.54173000       4.94311000      34.61069000      -3.44862300      -2.24965400       3.18811700
O        4.26577000       2.28661000      34.61069000       3.44862300      -2.24965400       3.18811700
O        0.85271000       1.04900000      30.25798000      -0.07480100       0.64591500       0.51504600
O        3.92508000       4.08102000      32.29870000       0.76496500       0.83991300      -1.37925300
O        1.27542000       4.51206000      32.65631000      -1.21341900      -0.44482800       1.68856900
O        3.93281000       4.90820000      27.22825000       0.70355700       1.07700800      -1.14379000
O        1.75016000       0.02035000      20.09421000       0.10646500       0.62199500       0.52314600
O        3.88242000       1.42452000      32.29870000      -0.76496500       0.83991300      -1.37925300
O        1.66327000       1.61348000      10.00991000       3.44862300       2.24965400      -3.18811700
O        1.27992000       2.47557000      12.32190000      -0.76496500      -0.83991300       1.37925300
O        1.32258000       5.13207000      12.32190000       0.76496500      -0.83991300       1.37925300
O        3.87792000       4.70104000      11.96429000      -1.21341900       0.44482800      -1.68856900
O        3.87476000       3.87944000      17.06574000      -0.69944000       1.06529400      -1.13474200
O        4.35229000       0.19459000      14.36262000       0.07480100      -0.64591500      -0.51504600
O        3.45521000       2.85109000      14.36262000      -0.07480100      -0.64591500      -0.51504600
O        3.92958000       2.04454000      11.96429000       1.21341900       0.44482800      -1.68856900
O        1.75012000       0.83427000      15.01362000       0.07445700       0.60678900       0.47328100
O        0.93923000       4.26998000      10.00991000      -3.44862300       2.24965400      -3.18811700
O        4.35261000       4.69352000      19.44524000       0.10664200      -0.62490200      -0.52306600
O        0.85238000       3.49077000      15.01362000      -0.07445700       0.60678900       0.47328100
O        3.93274000       1.22294000      17.06574000       0.69944000       1.06529400      -1.13474200
O        1.27219000       1.64840000      17.39235000      -0.70355700      -1.07700800       1.14379000
O        1.33031000       4.30490000      17.39235000       0.70355700      -1.07700800       1.14379000
O        3.45489000       2.03702000      19.44524000      -0.10664200      -0.62490200      -0.52306600
Zr       2.41878000       0.20775000      31.31562000      -1.50558700       1.04880500       0.60822400
Zr       2.99637000       3.13890000      33.71113000      -5.04803900       1.03204700      -2.77568800
Zr       4.81113000       0.48240000      33.71113000       5.04803900       1.03204700      -2.77568800
Zr       0.18372000       2.86425000      31.31562000       1.50558700       1.04880500       0.60822400
Zr       2.20863000       3.41770000      10.90947000       5.04803900      -1.03204700       2.77568800
Zr       2.78622000       1.03584000      13.30498000       1.50558700      -1.04880500      -0.60822400
Zr       5.02128000       3.69234000      13.30498000      -1.50558700      -1.04880500      -0.60822400
Zr       0.19125000       4.49453000      21.14913000      -0.14785500       1.33909500       0.36546700
Zr       5.01385000       2.87596000      18.39024000       0.13226000      -1.33819000      -0.36696500
Zr       2.79365000       0.21946000      18.39024000      -0.13226000      -1.33819000      -0.36696500
Zr       2.41135000       1.02413000      26.23036000       0.13226000       1.33819000       0.36696500
Zr       2.79447000       3.90478000      28.55251000      -0.26405600      -1.35341300      -0.31995400
Zr       5.01303000       1.24828000      28.55251000       0.26405600      -1.35341300      -0.31995400
Zr       0.19115000       3.68063000      26.23036000      -0.13226000       1.33819000       0.36696500
Zr       2.41053000       2.65181000      16.06808000       0.26405600       1.35341300       0.31995400
Zr       2.41125000       1.83803000      21.14913000       0.14785500       1.33909500       0.36546700
Zr       2.79375000       4.71856000      23.47146000      -0.14785500      -1.33909500      -0.36546700
Zr       5.01375000       2.06206000      23.47146000       0.14785500      -1.33909500      -0.36546700
Zr       0.19197000      -0.00469000      16.06808000      -0.26405600       1.35341300       0.31995400
Zr       0.39387000       0.76120000      10.90947000      -5.04803900      -1.03204700       2.77568800
60
Lattice="5.205 0.0 0.0 0.0 5.313 0.0 0.0 0.0 44.620599" Properties=species:S:1:pos:R:3:forces:R:3 energy=-564.35554013 stress="46.5782 0.0 0.0 0.0 27.82871 -20.38102 0.0 -20.38102 56.40203" pbc="T T T"
O        3.48172000       1.24410000      24.51103000      -0.58564000      -0.89922100      -0.12264800
O        4.32578000       3.90060000      24.51103000       0.58564000      -0.89922100      -0.12264800
O        0.87922000       2.65599000      20.10957000      -0.58564000       0.89922100       0.12264800
O        3.97103000       0.38756000      22.14027000      -0.10181300       1.10641800      -0.82948300
O        1.23397000       0.85603000      22.48033000       0.10181300      -1.10641800       0.82948300
O        1.36853000       3.51253000      22.48033000      -0.10181300      -1.10641800       0.82948300
O        3.83647000       3.04406000      22.14027000       0.10181300       1.10641800      -0.82948300
O        1.72324000       4.49869000      25.19074000       0.58753400       0.89889700       0.12287300
O        3.48175000       0.43019000      29.59176000      -0.56583100      -0.89091100      -0.08264400
O        4.32575000       3.08669000      29.59176000       0.56583100      -0.89091100      -0.08264400
O        1.36602000       1.87872000      32.65857000       0.56452000      -0.46371600       1.53512300
O        0.87926000       1.84219000      25.19074000      -0.58753400       0.89889700       0.12287300
O        1.23403000       0.04208000      27.56167000       0.09920000      -1.10492100       0.82527300
O        1.36847000       2.69858000      27.56167000      -0.09920000      -1.10492100       0.82527300
O        3.83648000       2.23026000      27.22143000       0.09917200       1.10882600      -0.82820200
O        1.72299000       3.68466000      30.27304000       0.54564300       0.90809600       0.12694600
O        3.54905000       4.95618000      34.61292000      -2.78322200      -1.98894700       2.26877900
O        4.25845000       2.29968000      34.61292000       2.78322200      -1.98894700       2.26877900
O        0.87951000       1.02816000      30.27304000      -0.54564300       0.90809600       0.12694600
O        3.96503000       4.06258000      32.29430000      -0.19210700       0.87132800      -0.93700000
O        1.23648000       4.53523000      32.65857000      -0.56452000      -0.46371600       1.53512300
O        3.97102000       4.88676000      27.22143000      -0.09917200       1.10882600      -0.82820200
O        1.72328000      -0.00051000      20.10957000       0.58564000       0.89922100       0.12264800
O        3.84247000       1.40608000      32.29430000       0.19210700       0.87132800      -0.93700000
O        1.65595000       1.60042000      10.00768000       2.78322200       1.98894700      -2.26877900
O        1.23997000       2.49402000      12.32630000       0.19210700      -0.87132800       0.93700000
O        1.36253000       5.15052000      12.32630000      -0.19210700      -0.87132800       0.93700000
O        3.83898000       4.67787000      11.96203000      -0.56452000       0.46371600      -1.53512300
O        3.83653000       3.85801000      17.05893000       0.09920000       1.10492100      -0.82527300
O        4.32549000       0.21543000      14.34756000       0.54564300      -0.90809600      -0.12694600
O        3.48201000       2.87193000      14.34756000      -0.54564300      -0.90809600      -0.12694600
O        3.96852000       2.02137000      11.96203000       0.56452000       0.46371600      -1.53512300
O        1.72325000       0.81340000      15.02884000       0.56583100       0.89091100       0.08264400
O        0.94655000       4.25692000      10.00768000      -2.78322200       1.98894700      -2.26877900
O        4.32574000       4.71440000      19.42986000       0.58753400      -0.89889700      -0.12287300
O        0.87925000       3.46990000      15.02884000      -0.56583100       0.89091100       0.08264400
O        3.97097000       1.20151000      17.05893000      -0.09920000       1.10492100      -0.82527300
O        1.23398000       1.66983000      17.39917000       0.09917200      -1.10882600       0.82820200
O        1.36852000       4.32633000      17.39917000      -0.09917200      -1.10882600       0.82820200
O        3.48176000       2.05790000      19.42986000      -0.58753400      -0.89889700      -0.12287300
Zr       2.42065000       0.22588000      31.31622000      -1.25005100       0.64547000       0.44924900
Zr       2.94721000       3.11051000      33.69225000      -3.07618000       1.04821100      -2.13055100
Zr       4.86029000       0.45401000      33.69225000       3.07618000       1.04821100      -2.13055100
Zr       0.18185000       2.88238000      31.31622000       1.25005100       0.64547000       0.44924900
Zr       2.25779000       3.44608000      10.92835000       3.07618000      -1.04821100       2.13055100
Zr       2.78435000       1.01771000      13.30438000       1.25005100      -0.64547000      -0.44924900
Zr       5.02315000       3.67421000      13.30438000      -1.25005100      -0.64547000      -0.44924900
Zr       0.18768000       4.51210000      21.15064000      -0.06428500       0.87823600       0.27006000
Zr       5.01739000       2.85839000      18.38872000       0.05134300      -0.87747200      -0.27002100
Zr       2.79011000       0.20189000      18.38872000      -0.05134300      -0.87747200      -0.27002100
Zr       2.41489000       1.04170000      26.23187000       0.05134300       0.87747200       0.27002100
Zr       2.79075000       3.88720000      28.55105000      -0.15858000      -0.88756900      -0.24008300
Zr       5.01675000       1.23070000      28.55105000       0.15858000      -0.88756900      -0.24008300
Zr       0.18761000       3.69820000      26.23187000      -0.05134300       0.87747200       0.27002100
Zr       2.41425000       2.66939000      16.06955000       0.15858000       0.88756900       0.24008300
Zr       2.41482000       1.85560000      21.15064000       0.06428500       0.87823600       0.27006000
Zr       2.79018000       4.70100000      23.46995000      -0.06428500      -0.87823600      -0.27006000
Zr       5.01732000       2.04450000      23.46995000       0.06428500      -0.87823600      -0.27006000
Zr       0.18825000       0.01289000      16.06955000      -0.15858000       0.88756900       0.24008300
Zr       0.34471000       0.78958000      10.92835000      -3.07618000      -1.04821100       2.13055100
60
Lattice="5.205 0.0 0.0 0.0 5.313 0.0 0.0 0.0 44.620599" Properties=species:S:1:pos:R:3:forces:R:3 energy=-567.2373618 stress="19.99181 0.0 0.0 0.0 12.13332 -16.26572 0.0 -16.26572 34.54793" pbc="T T T"
O        3.42231000       1.17751000      24.52391000       0.32903400      -0.19192900      -0.71797400
O        4.38519000       3.83401000      24.52391000      -0.32903400      -0.19192900      -0.71797400
O        0.81981000       2.72259000      20.09668000       0.32903400       0.19192900       0.71797400
O        3.92024000       0.46437000      22.11031000       0.57793500       0.68944600      -0.58490700
O        1.28476000       0.77923000      22.51029000      -0.57793500      -0.68944600       0.58490700
O        1.31774000       3.43573000      22.51029000       0.57793500      -0.68944600       0.58490700
O        3.88726000       3.12087000      22.11031000      -0.57793500       0.68944600      -0.58490700
O        1.78273000       4.56530000      25.17785000      -0.33478200       0.19275000       0.72682600
O        3.42326000       0.36397000      29.60631000       0.13870800      -0.26359100      -0.44147000
O        4.38424000       3.02047000      29.60631000      -0.13870800      -0.26359100      -0.44147000
O        1.34504000       1.82941000      32.72657000       0.53074700      -0.60787600       0.32804900
O        0.81977000       1.90880000      25.17785000       0.33478200       0.19275000       0.72682600
O        1.28473000      -0.03468000      27.59147000      -0.57347400      -0.70079400       0.61059900
O        1.31777000       2.62182000      27.59147000       0.57347400      -0.70079400       0.61059900
O        3.88716000       2.30721000      27.19150000      -0.54928700       0.65101000      -0.58208100
O        1.78046000       3.75165000      30.26071000      -0.42299400       0.24763300       0.93899300
O        3.41199000       4.84878000      34.71476000       0.37118400      -0.48449700      -1.66103300
O        4.39551000       2.19228000      34.71476000      -0.37118400      -0.48449700      -1.66103300
O        0.82204000       1.09514000      30.26071000       0.42299400       0.24763300       0.93899300
O        3.90798000       4.12498000      32.25644000       0.77064700       0.63078000      -1.54503200
O        1.25746000       4.48591000      32.72657000      -0.53074700      -0.60787600       0.32804900
O        3.92034000       4.96371000      27.19150000       0.54928700       0.65101000      -0.58208100
O        1.78269000       0.06609000      20.09668000      -0.32903400       0.19192900       0.71797400
O        3.89952000       1.46848000      32.25644000      -0.77064700       0.63078000      -1.54503200
O        1.79301000       1.70782000       9.90584000      -0.37118400       0.48449700       1.66103300
O        1.29702000       2.43162000      12.36416000      -0.77064700      -0.63078000       1.54503200
O        1.30548000       5.08812000      12.36416000       0.77064700      -0.63078000       1.54503200
O        3.85996000       4.72719000      11.89403000      -0.53074700       0.60787600      -0.32804900
O        3.88723000       3.93478000      17.02913000      -0.57347400       0.70079400      -0.61059900
O        4.38296000       0.14845000      14.35989000      -0.42299400      -0.24763300      -0.93899300
O        3.42454000       2.80495000      14.35989000       0.42299400      -0.24763300      -0.93899300
O        3.94754000       2.07069000      11.89403000       0.53074700       0.60787600      -0.32804900
O        1.78174000       0.87963000      15.01428000      -0.13870800       0.26359100       0.44147000
O        0.80949000       4.36432000       9.90584000       0.37118400       0.48449700       1.66103300
O        4.38523000       4.64779000      19.44275000      -0.33478200      -0.19275000      -0.72682600
O        0.82076000       3.53613000      15.01428000       0.13870800       0.26359100       0.44147000
O        3.92027000       1.27828000      17.02913000       0.57347400       0.70079400      -0.61059900
O        1.28466000       1.59288000      17.42910000      -0.54928700      -0.65101000       0.58208100
O        1.31784000       4.24938000      17.42910000       0.54928700      -0.65101000       0.58208100
O        3.42227000       1.99129000      19.44275000       0.33478200      -0.19275000      -0.72682600
Zr       2.36080000       0.23374000      31.33619000       0.52440300       1.02556600       0.19600000
Zr       2.86481000       3.19306000      33.61688000       2.02927000      -0.40178300       3.16276400
Zr       4.94269000       0.53655000      33.61688000      -2.02927000      -0.40178300       3.16276400
Zr       0.24170000       2.89024000      31.33619000      -0.52440300       1.02556600       0.19600000
Zr       2.34019000       3.36354000      11.00372000      -2.02927000       0.40178300      -3.16276400
Zr       2.84420000       1.00985000      13.28441000      -0.52440300      -1.02556600      -0.19600000
Zr       4.96330000       3.66635000      13.28441000       0.52440300      -1.02556600      -0.19600000
Zr       0.18902000       4.53137000      21.16126000       0.22030800       0.81908500       0.21593900
Zr       5.01548000       2.83916000      18.37811000      -0.15618900      -0.82387000      -0.21493500
Zr       2.79202000       0.18266000      18.37811000       0.15618900      -0.82387000      -0.21493500
Zr       2.41298000       1.06093000      26.24249000      -0.15618900       0.82387000       0.21493500
Zr       2.78794000       3.86753000      28.54176000       0.68816500      -0.72419800      -0.31719100
Zr       5.01956000       1.21103000      28.54176000      -0.68816500      -0.72419800      -0.31719100
Zr       0.18952000       3.71743000      26.24249000       0.15618900       0.82387000       0.21493500
Zr       2.41706000       2.68907000      16.07884000      -0.68816500       0.72419800       0.31719100
Zr       2.41348000       1.87487000      21.16126000      -0.22030800       0.81908500       0.21593900
Zr       2.79152000       4.68173000      23.45933000       0.22030800      -0.81908500      -0.21593900
Zr       5.01598000       2.02523000      23.45933000      -0.22030800      -0.81908500      -0.21593900
Zr       0.18544000       0.03257000      16.07884000       0.68816500       0.72419800       0.31719100
Zr       0.26231000       0.70704000      11.00372000       2.02927000       0.40178300      -3.16276400
60
Lattice="5.205 0.0 0.0 0.0 5.313 0.0 0.0 0.0 44.620599" Properties=species:S:1:pos:R:3:forces:R:3 energy=-567.43340537 stress="22.07172 0.0 0.0 0.0 13.58895 -15.69046 0.0 -15.69046 38.01875" pbc="T T T"
O        3.43765000       1.19471000      24.52059000       0.08740700      -0.38806400      -0.56613900
O        4.36985000       3.85121000      24.52059000      -0.08740700      -0.38806400      -0.56613900
O        0.83515000       2.70539000      20.10001000       0.08740700       0.38806400       0.56613900
O        3.93336000       0.44453000      22.11805000       0.39520600       0.80415500      -0.65826700
O        1.27164000       0.79906000      22.50255000      -0.39520600      -0.80415500       0.65826700
O        1.33086000       3.45556000      22.50255000       0.39520600      -0.80415500       0.65826700
O        3.87414000       3.10103000      22.11805000      -0.39520600       0.80415500      -0.65826700
O        1.76737000       4.54810000      25.18118000      -0.09329800       0.38804200       0.57500100
O        3.43836000       0.38107000      29.60256000      -0.03654000      -0.43724600      -0.36137600
O        4.36914000       3.03757000      29.60256000       0.03654000      -0.43724600      -0.36137600
O        1.35046000       1.84214000      32.70901000       0.50256600      -0.58229000       0.66996200
O        0.83513000       1.89160000      25.18118000       0.09329800       0.38804200       0.57500100
O        1.27163000      -0.01486000      27.58377000      -0.39472300      -0.81307300       0.67831800
O        1.33087000       2.64164000      27.58377000       0.39472300      -0.81307300       0.67831800
O        3.87407000       2.28734000      27.19923000      -0.37531600       0.77492400      -0.65462900
O        1.76562000       3.73434000      30.26390000      -0.15025300       0.44585600       0.72556200
O        3.44739000       4.87652000      34.68845000       0.18553300      -0.47533100      -1.09500300
O        4.36011000       2.22002000      34.68845000      -0.18553300      -0.47533100      -1.09500300
O        0.83688000       1.07784000      30.26390000       0.15025300       0.44585600       0.72556200
O        3.92271000       4.10886000      32.26622000       0.52501200       0.65928000      -1.41679000
O        1.25204000       4.49864000      32.70901000      -0.50256600      -0.58229000       0.66996200
O        3.93343000       4.94384000      27.19923000       0.37531600       0.77492400      -0.65462900
O        1.76735000       0.04889000      20.10001000      -0.08740700       0.38806400       0.56613900
O        3.88479000       1.45236000      32.26622000      -0.52501200       0.65928000      -1.41679000
O        1.75761000       1.68008000       9.93215000      -0.18553300       0.47533100       1.09500300
O        1.28229000       2.44773000      12.35438000      -0.52501200      -0.65928000       1.41679000
O        1.32021000       5.10423000      12.35438000       0.52501200      -0.65928000       1.41679000
O        3.85454000       4.71445000      11.91159000      -0.50256600       0.58229000      -0.66996200
O        3.87413000       3.91495000      17.03683000      -0.39472300       0.81307300      -0.67831800
O        4.36812000       0.16575000      14.35670000      -0.15025300      -0.44585600      -0.72556200
O        3.43938000       2.82225000      14.35670000       0.15025300      -0.44585600      -0.72556200
O        3.95296000       2.05795000      11.91159000       0.50256600       0.58229000      -0.66996200
O        1.76664000       0.86252000      15.01804000       0.03654000       0.43724600       0.36137600
O        0.84489000       4.33658000       9.93215000       0.18553300       0.47533100       1.09500300
O        4.36987000       4.66500000      19.43942000      -0.09329800      -0.38804200      -0.57500100