60
Lattice="7.959748 0.0 0.0 0.0 5.205 0.0 0.0 0.0 36.833377" Properties=species:S:1:pos:R:3:forces:R:3 energy=-545.64552881 stress="32.41595 -15.28663 1.7471 -15.28663 82.36803 -3.28796 1.7471 -3.28796 54.93844" pbc="T T T"
O        4.59725000       3.57427000      18.81724000       2.40679000      -2.49289400      -0.12595900
O        6.64204000       4.23323000      17.12142000       2.36217200       2.47203500      -0.20390300
O        4.74899000       0.97177000      19.71196000      -2.36217200      -2.47203500       0.20390300
O        7.74406000       4.10258000      19.76690000      -1.13473200      -3.51105600       1.67844200
O        3.64697000       1.10242000      17.06648000       1.13473200       3.51105600      -1.67844200
O        1.60218000       1.50008000      18.76230000       1.10929800      -3.53998700      -1.75689500
O        1.82910000       3.70492000      18.07108000      -1.10929800       3.53998700       1.75689500
O        2.70419000       1.63073000      21.40777000      -2.16103100       2.29784400       0.09920500
O        0.50765000       3.57427000      22.20888000       2.14018200      -2.33808100      -0.38073100
O        2.55245000       4.23323000      20.51306000       2.46048600       2.51341500      -0.08927300
O        1.38274000       1.50008000      25.54557000       0.25155100      -3.37853100       0.11490800
O        0.65940000       0.97177000      23.10359000      -2.94527400      -2.70969400      -0.40698900
O        7.51713000       1.10242000      20.45812000       1.07266800       3.55868800      -1.82526100
O        5.47233000       1.50008000      22.15393000       1.15945700      -3.32566200      -1.43532200
O        5.69926000       3.70492000      21.46272000      -1.25098600       3.43294200       1.80270700
O        6.57435000       1.63073000      24.79941000      -3.59859200       3.47312000       2.49728200
O        4.37781000       3.57427000      25.60052000       3.86760200      -4.03462300       2.77452900
O        6.42261000       4.23323000      23.90470000       1.73335300       2.07879000      -0.41148600
O        4.52955000       0.97177000      26.49523000       0.67622700       0.67982600       2.11030700
O        7.52462000       4.10258000      26.55018000      -2.86352400      -1.43197900       2.42509100
O        3.42754000       1.10242000      23.84975000       1.72242900       2.68352700      -1.19292500
O        3.65446000       4.10258000      23.15854000      -0.65920100      -3.64993200       2.21420300
O        6.79379000       1.63073000      18.01614000      -2.40679000       2.49289400       0.12595900
O        1.60967000       3.70492000      24.85436000       0.35940300       4.19902400       1.19408000
O        7.01322000       1.63073000      11.23286000      -3.86760200       4.03462300      -2.77452900
O        3.86641000       1.10242000      10.28320000       2.86352400       1.43197900      -2.42509100
O        1.82161000       1.50008000      11.97902000      -0.35940300      -4.19902400      -1.19408000
O        2.04854000       3.70492000      11.28781000      -0.25155100       3.37853100      -0.11490800
O        5.91870000       3.70492000      14.67944000      -1.15945700       3.32566200       1.43532200
O        6.86148000       4.23323000      10.33815000      -0.67622700      -0.67982600      -2.11030700
O        4.81668000       3.57427000      12.03397000       3.59859200      -3.47312000      -2.49728200
O        0.00374000       4.10258000      12.98362000      -1.72242900      -2.68352700       1.19292500
O        2.92363000       1.63073000      14.62450000      -2.14018200       2.33808100       0.38073100
O        4.96843000       0.97177000      12.92868000      -1.73335300      -2.07879000       0.41148600
O        2.77189000       4.23323000      13.72978000       2.94527400       2.70969400       0.40698900
O        0.87883000       0.97177000      16.32032000      -2.46048600      -2.51341500       0.08927300
O        3.87390000       4.10258000      16.37526000      -1.07266800      -3.55868800       1.82526100
O        7.73657000       1.10242000      13.67484000       0.65920100       3.64993200      -2.21420300
O        5.69177000       1.50008000      15.37066000       1.25098600      -3.43294200      -1.80270700
O        0.72709000       3.57427000      15.42560000       2.16103100      -2.29784400      -0.09920500
Zr       5.67795000       2.42709000      26.83338000       0.34940500       1.47590900      -5.09573200
Zr       5.27421000       2.77791000      23.56655000      -1.12013700       0.70553400       0.01431900
Zr       3.22941000       5.02959000      25.26237000      -4.79961400       1.54052900      -1.18718100
Zr       7.72275000       0.17541000      25.13756000       5.05359300      -2.10854500      -0.54858700
Zr       6.11682000       2.42709000      13.26683000       1.12013700      -0.70553400      -0.01431900
Zr       5.71308000       2.77791000      10.00000000      -0.34940500      -1.47590900       5.09573200
Zr       3.66828000       5.02959000      11.69582000      -5.05359300       2.10854500       0.54858700
Zr       7.94218000       0.17541000      18.35428000       1.19024900       0.32335400      -1.08164000
Zr       7.53844000       5.02959000      15.08746000      -0.96404900      -0.42542500       1.43679700
Zr       1.62349000       2.77791000      13.39164000      -0.54576900      -0.28247500      -0.91844800
Zr       1.80780000       2.42709000      23.44174000       0.54576900       0.28247500       0.91844800
Zr       1.40405000       2.77791000      20.17491000      -1.23088100       0.33162600       1.24265400
Zr       7.31900000       5.02959000      21.87073000      -0.70239300      -0.37225600       1.34286700
Zr       3.85259000       0.17541000      21.74592000       0.96404900       0.42542500      -1.43679700
Zr       2.02723000       2.42709000      16.65846000       1.23088100      -0.33162600      -1.24265400
Zr       5.89739000       2.42709000      20.05010000       1.23108800      -0.31480300      -1.23120300
Zr       5.49364000       2.77791000      16.78328000      -1.23108800       0.31480300       1.23120300
Zr       3.44885000       5.02959000      18.47909000      -1.19024900      -0.32335400       1.08164000
Zr       4.07203000       0.17541000      14.96264000       0.70239300       0.37225600      -1.34286700
Zr       0.20187000       0.17541000      11.57101000       4.79961400      -1.54052900       1.18718100
60
Lattice="7.959748 0.0 0.0 0.0 5.205 0.0 0.0 0.0 36.833377" Properties=species:S:1:pos:R:3:forces:R:3 energy=-556.82561328 stress="67.18209 -8.41268 22.09485 -8.41268 44.61321 -1.76309 22.09485 -1.76309 33.00864" pbc="T T T"
O        4.71336000       3.45401000      18.81116000       0.07695600      -0.04300200      -0.80637800
O        6.75600000       4.35248000      17.11159000       0.19821000       0.17606600      -0.79398600
O        4.63503000       0.85252000      19.72179000      -0.19821000      -0.17606600       0.79398600
O        7.68931000       3.93320000      19.84787000      -1.47868800       0.66871100      -0.23982800
O        3.70172000       1.27180000      16.98551000       1.47868800      -0.66871100       0.23982800
O        1.65569000       1.32930000      18.67754000       1.55743500       0.73257200       0.19215400
O        1.77559000       3.87570000      18.15584000      -1.55743500      -0.73257200      -0.19215400
O        2.59994000       1.74158000      21.41256000      -0.33065500       0.37592000       1.19004400
O        0.61090000       3.46148000      22.19051000       1.01649500      -0.84480500       0.05112800
O        2.67115000       4.35448000      20.50875000       0.01005900      -0.04508400      -0.82992400
O        1.39488000       1.33709000      25.55112000       2.71831900       0.06319100      -0.46855900
O        0.51731000       0.84105000      23.08396000       1.15311500       0.98925000       1.31660100
O        7.56888000       1.27410000      20.37006000       1.64203700      -0.69356100       0.16231000
O        5.52827000       1.33964000      22.08469000       1.36742300       0.49885000      -0.06948400
O        5.63891000       3.87053000      21.54969000      -1.54908900      -0.63220200      -0.48807500
O        6.40074000       1.79828000      24.91989000       1.63997500      -1.23288000      -1.35966500
O        4.56439000       3.37963000      25.73437000      -7.89095200       6.78792600      -5.87663000
O        6.50623000       4.33351000      23.88485000       0.64434500       0.58119100      -0.84954500
O        4.56218000       1.00457000      26.59704000      -2.88065700      -3.11425000       0.32891400
O        7.38648000       4.03350000      26.66717000      -0.12359000       1.21866300      -1.25919000
O        3.51063000       1.23188000      23.79220000       0.16627100       0.29393700      -0.45405500
O        3.62266000       3.92650000      23.26536000      -2.39678300       0.83167200       0.14414700
O        6.67768000       1.75099000      18.02221000      -0.07695600       0.04300200       0.80637800
O        1.62701000       3.90749000      24.91196000      -2.63155300      -1.54339100      -0.42893900
O        6.82664000       1.82537000      11.09901000       7.89095200      -6.78792600       5.87663000
O        4.00456000       1.17150000      10.16621000       0.12359000      -1.21866300       1.25919000
O        1.80428000       1.29751000      11.92142000       2.63155300       1.54339100       0.42893900
O        2.03641000       3.86791000      11.28226000      -2.71831900      -0.06319100       0.46855900
O        5.86276000       3.86536000      14.74869000      -1.36742300      -0.49885000       0.06948400
O        6.82886000       4.20043000      10.23634000       2.88065700       3.11425000      -0.32891400
O        4.99029000       3.40672000      11.91349000      -1.63997500       1.23288000       1.35966500
O       -0.07935000       3.97312000      13.04117000      -0.16627100      -0.29393700       0.45405500
O        2.82038000       1.74352000      14.64287000      -1.01649500       0.84480500      -0.05112800
O        4.88480000       0.87149000      12.94853000      -0.64434500      -0.58119100       0.84954500
O        2.91397000       4.36395000      13.74942000      -1.15311500      -0.98925000      -1.31660100
O        0.76013000       0.85052000      16.32462000      -0.01005900       0.04508400       0.82992400
O        3.82215000       3.93090000      16.46332000      -1.64203700       0.69356100      -0.16231000
O        7.76837000       1.27850000      13.56802000       2.39678300      -0.83167200      -0.14414700
O        5.75212000       1.33447000      15.28369000       1.54908900       0.63220200       0.48807500
O        0.83134000       3.46342000      15.42082000       0.33065500      -0.37592000      -1.19004400
Zr       5.69481000       2.49829000      26.58755000       7.65044300      -2.95203200       6.30120800
Zr       5.22017000       2.81195000      23.56724000       2.50287300      -0.75674000       0.02079800
Zr       2.99787000       5.10391000      25.20510000       6.66869000       3.10553800       2.57004100
Zr       0.00680000       0.07369000      25.11109000      -5.44479300      -2.37579100       2.33911000
Zr       6.17086000       2.39305000      13.26613000      -2.50287300       0.75674000      -0.02079800
Zr       5.69622000       2.70671000      10.24583000      -7.65044300       2.95203200      -6.30120800
Zr       3.42449000       5.13131000      11.72228000       5.44479300       2.37579100      -2.33911000
Zr       0.03986000       0.19101000      18.30210000      -0.90381600      -0.13821000       1.18467400
Zr       7.49193000       5.00907000      15.15677000       0.25951000      -0.00969400      -1.00011100
Zr       1.59716000       2.76428000      13.34733000       0.84959600       0.97548100       0.41276700
Zr       1.83412000       2.44072000      23.48605000      -0.84959600      -0.97548100      -0.41276700
Zr       1.34467000       2.79391000      20.23486000       0.93372100      -0.35484000      -0.98950500
Zr       7.28512000       5.01163000      21.93552000      -0.46164900      -0.03590400      -1.12762300
Zr       3.89910000       0.19593000      21.67661000      -0.25951000       0.00969400       1.00011100
Zr       2.08661000       2.41109000      16.59851000      -0.93372100       0.35484000       0.98950500
Zr       5.95678000       2.41190000      19.99071000      -0.83374200       0.22021900       1.30406600
Zr       5.43425000       2.79310000      16.84267000       0.83374200      -0.22021900      -1.30406600
Zr       3.39143000       5.01399000      18.53128000       0.90381600       0.13821000      -1.18467400
Zr       4.10591000       0.19337000      14.89786000       0.46164900       0.03590400       1.12762300
Zr       0.43342000       0.10109000      11.62828000      -6.66869000      -3.10553800      -2.57004100
60
Lattice="7.959748 0.0 0.0 0.0 5.205 0.0 0.0 0.0 36.833377" Properties=species:S:1:pos:R:3:forces:R:3 energy=-559.66370493 stress="36.84273 -4.93062 11.45039 -4.93062 32.46315 -0.50103 11.45039 -0.50103 26.0002" pbc="T T T"
O        4.67744000       3.49121000      18.81304000       0.75065800      -0.73284700      -0.61927300
O        6.72075000       4.31559000      17.11463000       0.82009000       0.82102900      -0.65169500
O        4.67029000       0.88941000      19.71875000      -0.82009000      -0.82102900       0.65169500
O        7.70625000       3.98560000      19.82282000      -1.28626400      -0.44431900       0.14870600
O        3.68478000       1.21940000      17.01055000       1.28626400       0.44431900      -0.14870600
O        1.63914000       1.38213000      18.70376000       1.32728100      -0.38638500      -0.18472500
O        1.79214000       3.82287000      18.12962000      -1.32728100       0.38638500       0.18472500
O        2.63219000       1.70729000      21.41108000      -0.83581300       0.89305900       0.84281600
O        0.57896000       3.49637000      22.19619000       1.31061100      -1.25874100      -0.17233100
O        2.63443000       4.31697000      20.51009000       0.73170500       0.68760900      -0.60734100
O        1.39112000       1.38751000      25.54940000       1.92912600      -1.36269200      -0.47283800
O        0.56127000       0.88149000      23.09003000      -0.07296800      -0.03970000       0.70357800
O        7.55287000       1.22099000      20.39730000       1.35670100       0.42747400      -0.22671600
O        5.51097000       1.38928000      22.10611000       1.23381500      -0.59531100      -0.37599400
O        5.65758000       3.81930000      21.52278000      -1.37434500       0.41407500      -0.02395200
O        6.45445000       1.74645000      24.88262000       0.23916100      -0.11311000       1.07469100
O        4.50667000       3.43985000      25.69296000      -2.59412900       2.49187000      -1.81868200
O        6.48036000       4.30249000      23.89099000       0.94023900       0.99403900      -0.79851000
O        4.55208000       0.99442000      26.56554000      -1.85376900      -2.05986800       0.76298800
O        7.42921000       4.05487000      26.63098000      -1.09330500       0.48112500      -0.29371600
O        3.48493000       1.19183000      23.81001000       0.71031200       0.93491600      -0.62048200
O        3.63250000       3.98097000      23.23231000      -1.66367700      -0.32384400       0.53596300
O        6.71359000       1.71379000      18.02033000      -0.75065800       0.73284700       0.61927300
O        1.62164000       3.84482000      24.89414000      -1.27892000       0.91144200       0.13538400
O        6.88436000       1.76515000      11.14042000       2.59412900      -2.49187000       1.81868200
O        3.96182000       1.15013000      10.20240000       1.09330500      -0.48112500       0.29371600
O        1.80964000       1.36018000      11.93924000       1.27892000      -0.91144200      -0.13538400
O        2.04016000       3.81749000      11.28398000      -1.92912600       1.36269200       0.47283800
O        5.88007000       3.81572000      14.72727000      -1.23381500       0.59531100       0.37599400
O        6.83895000       4.21058000      10.26783000       1.85376900       2.05986800      -0.76298800
O        4.93658000       3.45855000      11.95076000      -0.23916100       0.11311000      -1.07469100
O       -0.05364000       4.01317000      13.02337000      -0.71031200      -0.93491600       0.62048200
O        2.85232000       1.70863000      14.63718000      -1.31061100       1.25874100       0.17233100
O        4.91067000       0.90251000      12.94239000      -0.94023900      -0.99403900       0.79851000
O        2.87002000       4.32351000      13.74334000       0.07296800       0.03970000      -0.70357800
O        0.79685000       0.88803000      16.32329000      -0.73170500      -0.68760900       0.60734100
O        3.83816000       3.98401000      16.43608000      -1.35670100      -0.42747400       0.22671600
O        7.75853000       1.22403000      13.60107000       1.66367700       0.32384400      -0.53596300
O        5.73345000       1.38570000      15.31060000       1.37434500      -0.41407500       0.02395200
O        0.79909000       3.49771000      15.42230000       0.83581300      -0.89305900      -0.84281600
Zr       5.68959000       2.47627000      26.66360000       3.48132900      -0.13806000       0.17023900
Zr       5.23689000       2.80142000      23.56703000       1.37593600      -0.20872600      -0.09009700
Zr       3.06950000       5.08092000      25.22282000       2.85278000       1.49830600       1.36198100
Zr      -0.06862000       0.10516000      25.11928000      -2.09294900      -1.61577700       1.49467700
Zr       6.15414000       2.40358000      13.26635000      -1.37593600       0.20872600       0.09009700
Zr       5.70144000       2.72873000      10.16978000      -3.48132900       0.13806000      -0.17023900
Zr       3.49991000       5.09984000      11.71410000       2.09294900       1.61577700      -1.49467700
Zr       0.02209000       0.18618000      18.31824000      -0.44190900      -0.00347300       0.67111600
Zr       7.50632000       5.01542000      15.13533000       0.07574100      -0.01435400      -0.42817500
Zr       1.60530000       2.76850000      13.36104000       0.78497700       0.82046600      -0.16832400
Zr       1.82598000       2.43650000      23.47234000      -0.78497700      -0.82046600       0.16832400
Zr       1.36304000       2.78896000      20.21632000       0.42864400      -0.14977500      -0.49976400
Zr       7.29560000       5.01719000      21.91547000      -0.25915200       0.06116500      -0.50723400
Zr       3.88471000       0.18958000      21.69805000      -0.07574100       0.01435400       0.42817500
Zr       2.06824000       2.41604000      16.61706000      -0.42864400       0.14977500       0.49976400
Zr       5.93841000       2.41660000      20.00908000      -0.36920300       0.08591800       0.71362400
Zr       5.45263000       2.78840000      16.82430000       0.36920300      -0.08591800      -0.71362400
Zr       3.40919000       5.01882000      18.51513000       0.44190900       0.00347300      -0.67111600
Zr       4.09543000       0.18781000      14.91790000       0.25915200      -0.06116500       0.50723400
Zr       0.36179000       0.12408000      11.61056000      -2.85278000      -1.49830600      -1.36198100
60
Lattice="7.959748 0.0 0.0 0.0 5.205 0.0 0.0 0.0 36.833377" Properties=species:S:1:pos:R:3:forces:R:3 energy=-563.90877996 stress="14.19568 -5.55912 0.52162 -5.55912 16.26988 -1.34741 0.52162 -1.34741 24.45107" pbc="T T T"
O        4.73629000       3.43227000      18.78372000      -0.06258400       0.12318500      -0.65158600
O        6.78228000       4.37831000      17.08303000      -0.30666400      -0.24531200      -0.65111800
O        4.60875000       0.82669000      19.75035000       0.30666400       0.24531200       0.65111800
O        7.63630000       3.92919000      19.84691000      -1.04878400       0.40591000       0.17609600
O        3.75473000       1.27581000      16.98647000       1.04878400      -0.40591000      -0.17609600
O        1.71068000       1.32805000      18.67723000       0.91552300       0.35816900      -0.02390100
O        1.72061000       3.87695000      18.15614000      -0.91552300      -0.35816900       0.02390100
O        2.57202000       1.77146000      21.45025000       0.19835000      -0.16883000       0.63880200
O        0.66040000       3.41523000      22.18446000      -0.63798400       0.57744600      -0.73993300
O        2.69298000       4.37408000      20.48168000      -0.13746000      -0.19293700      -0.76910200
O        1.48103000       1.29091000      25.52919000       0.27973600      -0.60480700      -0.10024300
O        0.52751000       0.85168000      23.11767000      -0.53814200      -0.23222100       0.46301500
O        7.62536000       1.27713000      20.36817000       0.81210800      -0.51056700       0.07563700
O        5.57879000       1.32795000      22.07426000       1.25447500       0.60917100       0.22931400
O        5.58245000       3.87353000      21.54034000      -0.86499900      -0.47395900       0.15054700
O        6.42807000       1.77723000      24.95707000       1.21863400      -0.67504200      -0.28102400
O        4.42926000       3.51091000      25.63934000       1.66678900      -0.95619900       0.50496600
O        6.54083000       4.36897000      23.85059000       0.01867800      -0.11246500      -0.39851100
O        4.47518000       0.90823000      26.62189000       0.44123400       0.64944800       0.61494000
O        7.35013000       4.06184000      26.64276000      -1.51018900      -0.91510600       1.22322100
O        3.53488000       1.26189000      23.76959000       1.14981400       0.04425100      -0.25592600
O        3.55039000       3.92858000      23.27946000       0.19084700       0.14681100      -0.36969000
O        6.65474000       1.77273000      18.04966000       0.06258400      -0.12318500       0.65158600
O        1.56748000       3.92949000      24.91261000      -1.00353600       0.02427000      -0.00772400
O        6.96178000       1.69409000      11.19404000      -1.66678900       0.95619900      -0.50496600
O        4.04091000       1.14316000      10.19062000       1.51018900       0.91510600      -1.22322100
O        1.86381000       1.27551000      11.92076000       1.00353600      -0.02427000       0.00772400
O        1.95025000       3.91409000      11.30419000      -0.27973600       0.60480700       0.10024300
O        5.81224000       3.87705000      14.75912000      -1.25447500      -0.60917100      -0.22931400
O        6.91585000       4.29677000      10.21148000      -0.44123400      -0.64944800      -0.61494000
O        4.96296000       3.42777000      11.87630000      -1.21863400       0.67504200       0.28102400
O       -0.10360000       3.94311000      13.06379000      -1.14981400      -0.04425100       0.25592600
O        2.77088000       1.78977000      14.64892000       0.63798400      -0.57744600       0.73993300
O        4.85020000       0.83603000      12.98278000      -0.01867800       0.11246500       0.39851100
O        2.90377000       4.35332000      13.71571000       0.53814200       0.23222100      -0.46301500
O        0.73830000       0.83092000      16.35170000       0.13746000       0.19293700       0.76910200
O        3.76567000       3.92787000      16.46521000      -0.81210800       0.51056700      -0.07563700
O        7.84064000       1.27642000      13.55392000      -0.19084700      -0.14681100       0.36969000
O        5.80859000       1.33147000      15.29304000       0.86499900       0.47395900      -0.15054700
O        0.85926000       3.43354000      15.38313000      -0.19835000       0.16883000      -0.63880200
Zr       5.85076000       2.48528000      26.61862000      -2.89415300       0.80802600      -0.18641200
Zr       5.28758000       2.79926000      23.56310000      -1.45403600       0.80412000      -0.84744400
Zr       3.14898000       5.16466000      25.27218000       1.09862300       0.65326700       0.49426600
Zr      -0.11110000       0.01023000      25.18125000       1.49792000       0.04548900      -0.52851100
Zr       6.10345000       2.40574000      13.27028000       1.45403600      -0.80412000       0.84744400
Zr       5.54027000       2.71972000      10.21476000       2.89415300      -0.80802600       0.18641200
Zr       3.54238000       5.19477000      11.65212000      -1.49792000      -0.04548900       0.52851100
Zr       0.01440000       0.18937000      18.33743000      -0.24132700       0.25291800       0.62204000
Zr       7.49978000       5.01037000      15.13081000       1.24501900       0.12836100      -1.01937000
Zr       1.63519000       2.80271000      13.34392000      -0.15270200      -0.19130700      -1.05682500
Zr       1.79610000       2.40229000      23.48945000       0.15270200       0.19130700       1.05682500
Zr       1.36971000       2.78561000      20.20655000       0.73824000       0.09560200      -0.37480500
Zr       7.27661000       5.01611000      21.90640000       1.33722600      -0.05345400      -0.74427900
Zr       3.89125000       0.19463000      21.70257000      -1.24501900      -0.12836100       1.01937000
Zr       2.06157000       2.41939000      16.62683000      -0.73824000      -0.09560200       0.37480500
Zr       5.93442000       2.41724000      20.02865000      -0.45023200      -0.23178900       0.34782500
Zr       5.45661000       2.78776000      16.80473000       0.45023200       0.23178900      -0.34782500
Zr       3.41688000       5.01563000      18.49594000       0.24132700      -0.25291800      -0.62204000
Zr       4.11442000       0.18889000      14.92697000      -1.33722600       0.05345400       0.74427900
Zr       0.28230000       0.04034000      11.56120000      -1.09862300      -0.65326700      -0.49426600
60
Lattice="7.959748 0.0 0.0 0.0 5.205 0.0 0.0 0.0 36.833377" Properties=species:S:1:pos:R:3:forces:R:3 energy=-563.93139427 stress="15.04387 -5.59373 0.99136 -5.59373 16.20513 -1.27507 0.99136 -1.27507 23.72918" pbc="T T T"
O        4.73213000       3.43644000      18.78579000      -0.00244500       0.06188200      -0.65296200
O        6.77793000       4.37387000      17.08526000      -0.22507200      -0.17050400      -0.65873800
O        4.61310000       0.83113000      19.74812000       0.22507200       0.17050400       0.65873800
O        7.64125000       3.93318000      19.84520000      -1.06829000       0.34510600       0.17132100
O        3.74978000       1.27182000      16.98817000       1.06829000      -0.34510600      -0.17132100
O        1.70562000       1.33187000      18.67911000       0.94847600       0.30466000      -0.03224700
O        1.72567000       3.87313000      18.15427000      -0.94847600      -0.30466000       0.03224700
O        2.57628000       1.76692000      21.44748000       0.12606500      -0.09521000       0.65812800
O        0.65464000       3.42097000      22.18529000      -0.50806500       0.45896100      -0.70141800
O        2.68884000       4.37004000      20.48369000      -0.07479700      -0.12961000      -0.76007700
O        1.47467000       1.29774000      25.53062000       0.40395100      -0.68680400      -0.13205000
O        0.52990000       0.85379000      23.11571000      -0.51297800      -0.22655800       0.48468400
O        7.62023000       1.27316000      20.37023000       0.85472800      -0.44616100       0.06063500
O        5.57400000       1.33229000      22.07651000       1.26017100       0.52677300       0.19183600
O        5.58776000       3.86970000      21.53909000      -0.90558000      -0.40715200       0.13579000
O        6.42993000       1.77506000      24.95181000       1.13151900      -0.60138700      -0.11348700
O        4.43473000       3.50588000      25.64313000       1.43634200      -0.77126300       0.41798800
O        6.53656000       4.36427000      23.85345000       0.09382500      -0.02673800      -0.43105900
O        4.48062000       0.91432000      26.61791000       0.33003400       0.53821500       0.62472800
O        7.35572000       4.06135000      26.64192000      -1.49090200      -0.81581500       1.09398400
O        3.53135000       1.25693000      23.77245000       1.11865800       0.09956000      -0.27898400
O        3.55620000       3.93228000      23.27613000       0.07313400       0.10726300      -0.30374300
O        6.65890000       1.76856000      18.04759000       0.00244500      -0.06188200       0.65296200
O        1.57131000       3.92350000      24.91131000      -1.00158000       0.10941000       0.00039300
O        6.95630000       1.69912000      11.19025000      -1.43634200       0.77126300      -0.41798800
O        4.03531000       1.14365000      10.19145000       1.49090200       0.81581500      -1.09398400
O        1.85997000       1.28150000      11.92207000       1.00158000      -0.10941000      -0.00039300
O        1.95661000       3.90726000      11.30276000      -0.40395100       0.68680400       0.13205000
O        5.81704000       3.87271000      14.75687000      -1.26017100      -0.52677300      -0.19183600
O        6.91041000       4.29068000      10.21547000      -0.33003400      -0.53821500      -0.62472800
O        4.96110000       3.42994000      11.88157000      -1.13151900       0.60138700       0.11348700
O       -0.10007000       3.94807000      13.06093000      -1.11865800      -0.09956000       0.27898400
O        2.77664000       1.78403000      14.64809000       0.50806500      -0.45896100       0.70141800
O        4.85448000       0.84073000      12.97993000      -0.09382500       0.02673800       0.43105900