60
Lattice="7.319381 0.0 0.0 0.590781 5.280052 0.0 0.0 0.0 36.916585" Properties=species:S:1:pos:R:3:forces:R:3 energy=-550.8716807 stress="74.16947 -2.14848 -14.26594 -2.14848 44.09752 -6.02297 -14.26594 -6.02297 68.74917" pbc="T T T"
O        4.59447000       2.68898000      18.85606000       2.95993800       1.60295900      -0.71810900
O        3.83048000       0.10139000      19.31637000      -0.56455100       1.99431900       2.71799700
O        6.94000000       1.96935000      17.60021000       0.56455100      -1.99431900      -2.71799700
O        2.70474000       3.90877000      17.54967000       2.72278200      -2.28894100      -2.00805900
O        1.33713000       3.44202000      19.36691000      -2.72278200       2.28894100       2.00805900
O        0.75896000       0.83364000      19.64470000       2.27846400       1.73889700      -2.90579900
O        2.69214000       1.23710000      17.27188000      -2.27846400      -1.73889700       2.90579900
O        3.06538000       5.07596000      21.69646000      -2.95856300      -1.60987800       0.71080200
O        0.89306000       3.10313000      22.49201000       2.84589200       1.56855000      -0.63091600
O        0.12907000       0.51553000      22.95232000      -0.64637600       2.05279700       2.50907100
O        0.67552000       1.66193000      26.91658000      -0.31271200       2.31957600      -0.28985500
O        3.23859000       2.38350000      21.23615000       0.54091400      -1.98207900      -2.76725200
O        4.95511000       3.85617000      23.00286000      -2.59316000       2.10207200       1.94905100
O        4.37693000       1.24779000      23.28064000       2.33641900       2.03739300      -3.20401300
O        6.31011000       1.65125000      20.90783000      -2.28593600      -1.68239300       2.95625100
O        6.09257000       0.21005000      25.33240000      -3.04763100      -2.41220100       0.99026000
O        4.51103000       3.51728000      26.12795000       3.63703300       1.25796900       0.77231500
O        3.74704000       0.92968000      26.58826000      -0.62774800       1.70697600       1.58470000
O        6.85656000       2.79765000      24.87209000      -0.12009700      -0.66424300      -1.04314100
O        2.62131000       4.73706000      24.82155000       2.65358700      -2.72107600      -2.05303300
O        1.25370000       4.27032000      26.63880000      -2.59195500       0.84637100       1.73447000
O        6.32272000       4.32292000      21.18561000       2.73634300      -2.33600300      -1.99142100
O        6.76679000       4.66181000      18.06052000      -2.95993800      -1.60295900       0.71810900
O        2.60870000       2.06540000      24.54377000      -2.29176300      -1.04488800       3.24280100
O        6.85023000       3.83351000      10.78864000      -3.63703300      -1.25796900      -0.77231500
O        1.42057000       2.61373000      12.09503000      -2.65358700       2.72107600       2.05303300
O        0.84239000       0.00534000      12.37282000       2.29176300       1.04488800      -3.24280100
O        2.77558000       0.40880000      10.00000000       0.31271200      -2.31957600       0.28985500
O        6.39355000       0.82295000      13.63594000      -2.33641900      -2.03739300       3.20401300
O        4.50470000       4.55314000      12.04449000       0.12009700       0.66424300       1.04314100
O        4.67791000       1.86069000      11.58418000       3.04763100       2.41220100      -0.99026000
O        2.78818000       3.08047000      10.27779000       2.59195500      -0.84637100      -1.73447000
O        3.14882000       4.24766000      14.42458000      -2.84589200      -1.56855000       0.63091600
O        7.02344000       1.14106000      10.32833000       0.62774800      -1.70697600      -1.58470000
O        0.80329000       4.96729000      15.68043000      -0.54091400       1.98207900       2.76725200
O        3.32203000       1.55521000      13.96427000       0.64637600      -2.05279700      -2.50907100
O        6.40615000       3.49462000      13.91373000       2.59316000      -2.10207200      -1.94905100
O        5.03854000       3.02788000      15.73097000      -2.73634300       2.33600300       1.99142100
O        4.46036000       0.41949000      16.00876000       2.28593600       1.68239300      -2.95625100
O        0.97650000       2.27483000      15.22012000       2.95856300       1.60987800      -0.71080200
Zr       6.58556000       3.50024000      26.59953000       2.84594200      -1.20673600      -1.87197900
Zr       4.01805000       0.22709000      24.86082000      -0.78791000      -0.76843400       2.25754600
Zr       2.71221000       3.04628000      26.43373000      -1.52204000      -3.57455600      -1.53932000
Zr       0.57202000       0.68105000      25.02662000       0.48343300       2.05143600       2.27494200
Zr       6.75243000       1.84365000      12.05576000       0.78791000       0.76843400      -2.25754600
Zr       4.77570000       3.85055000      10.31705000      -2.84594200       1.20673600       1.87197900
Zr       2.87908000       1.38969000      11.88996000      -0.48343300      -2.05143600      -2.27494200
Zr       1.24623000       5.13281000      17.75474000      -0.15169700       1.64649000       0.11698900
Zr       6.49705000       1.80383000      15.52591000       0.17405300      -1.70086700      -0.22715000
Zr       1.07429000       4.26470000      13.95300000      -0.42033100      -1.67162400       0.38784600
Zr       2.96759000       3.08609000      22.96359000       0.42033100       1.67162400      -0.38784600
Zr       0.99086000       5.09300000      21.22488000      -0.30287200      -1.55360300       0.37420800
Zr       6.41362000       2.63213000      22.79779000      -0.04225400      -1.71766800      -0.64123900
Zr       4.27342000       0.26690000      21.39068000      -0.17405300       1.70086700       0.22715000
Zr       3.05102000       2.25780000      15.69170000       0.30287200       1.55360300      -0.37420800
Zr       6.66899000       2.67194000      19.32765000       0.32306200       1.59742300      -0.36271300
Zr       4.69226000       4.67885000      17.58894000      -0.32306200      -1.59742300       0.36271300
Zr       2.79564000       2.21798000      19.16185000       0.15169700      -1.64649000      -0.11698900
Zr       4.94764000       4.71866000      14.11880000       0.04225400       1.71766800       0.64123900
Zr       1.32967000       4.30451000      10.48285000       1.52204000       3.57455600       1.53932000
60
Lattice="7.319381 0.0 0.0 0.590781 5.280052 0.0 0.0 0.0 36.916585" Properties=species:S:1:pos:R:3:forces:R:3 energy=-563.13661012 stress="40.02897 11.848 13.67247 11.848 21.29664 21.26961 13.67247 21.26961 53.80218" pbc="T T T"
O        4.73726000       2.76631000      18.82142000      -0.20999800       0.65382300      -0.44318200
O        3.80324000       0.19760000      19.44750000      -0.35875700       0.68101400      -0.28287800
O        6.96723000       1.87314000      17.46909000       0.35875700      -0.68101400       0.28287800
O        2.83610000       3.79834000      17.45280000      -1.40363300      -0.90057700      -0.32114100
O        1.20578000       3.55245000      19.46379000       1.40363300       0.90057700       0.32114100
O        0.86887000       0.91753000      19.50452000       0.38625500       1.04692000       1.32746100
O        2.58222000       1.15321000      17.41207000      -0.38625500      -1.04692000      -1.32746100
O        2.92265000       4.99829000      21.73075000       0.26415900      -0.73996500       0.45415400
O        1.03035000       3.17880000      22.46157000      -0.25463700       0.53609700      -0.22536500
O        0.09789000       0.61457000      23.07336000      -0.13323100       1.04951600       0.97115800
O        0.66043000       1.77384000      26.90260000       0.72222800       0.85236800       0.08054600
O        3.26468000       2.28788000      21.10265000       0.29671500      -0.63091900       0.25171600
O        4.83000000       3.95758000      23.09688000       1.33468200       0.70786300       0.08649200
O        4.48964000       1.34608000      23.12607000       0.19471300       1.09098400       1.67170900
O        6.19983000       1.57008000      21.05044000      -0.46781600      -0.93276200      -1.42121700
O        5.94555000       0.09368000      25.38018000       1.45451700      -0.37722700       0.35842400
O        4.68649000       3.57796000      26.16521000      -1.18734000       0.10808700       0.89356300
O        3.71676000       1.01203000      26.66471000      -1.30605600       1.80150600       1.51489800
O        6.85077000       2.76560000      24.82177000       0.90107000      -2.31063000      -3.26830700
O        2.74932000       4.60579000      24.72251000      -1.60586000      -0.66293200      -0.30052000
O        1.12865000       4.31115000      26.72247000       1.92935900       0.92005300       0.27532500
O        6.45473000       4.21022000      21.08954000      -1.40277000      -0.95934400      -0.37938000
O        6.62400000       4.58448000      18.09516000       0.20999800      -0.65382300       0.44318200
O        2.49814000       2.01499000      24.70021000      -1.32571600      -1.31304900      -2.27477800
O        6.67477000       3.77283000      10.75138000       1.18734000      -0.10808700      -0.89356300
O        1.29255000       2.74500000      12.19407000       1.60586000       0.66293200       0.30052000
O        0.95295000       0.05575000      12.21637000       1.32571600       1.31304900       2.27477800
O        2.79067000       0.29690000      10.01398000      -0.72222800      -0.85236800      -0.08054600
O        6.28084000       0.72466000      13.79051000      -0.19471300      -1.09098400      -1.67170900
O        4.51049000       4.58519000      12.09481000      -0.90107000       2.31063000       3.26830700
O        4.82493000       1.97706000      11.53641000      -1.45451700       0.37722700      -0.35842400
O        2.91322000       3.03964000      10.19411000      -1.92935900      -0.92005300      -0.27532500
O        3.01153000       4.17199000      14.45502000       0.25463700      -0.53609700       0.22536500
O        7.05372000       1.05871000      10.25188000       1.30605600      -1.80150600      -1.51489800
O        0.77719000       5.06291000      15.81393000      -0.29671500       0.63091900      -0.25171600
O        3.35321000       1.45617000      13.84322000       0.13323100      -1.04951600      -0.97115800
O        6.53125000       3.39321000      13.81970000      -1.33468200      -0.70786300      -0.08649200
O        4.90653000       3.14057000      15.82704000       1.40277000       0.95934400       0.37938000
O        4.57064000       0.50065000      15.86614000       0.46781600       0.93276200       1.42121700
O        1.11923000       2.35250000      15.18583000      -0.26415900       0.73996500      -0.45415400
Zr       6.72285000       3.44202000      26.50922000      -1.61553100       0.79285900       1.61117200
Zr       3.98004000       0.19002000      24.96973000       0.95200500       0.29336200      -0.22758300
Zr       2.63878000       2.87383000      26.35947000       2.22178400       1.18850300       1.93031900
Zr       0.59534000       0.78002000      25.13637000      -1.33150200      -2.73108700       0.24389700
Zr       6.79044000       1.88072000      11.94685000      -0.95200500      -0.29336200       0.22758300
Zr       4.63841000       3.90877000      10.40736000       1.61553100      -0.79285900      -1.61117200
Zr       2.85576000       1.29072000      11.78021000       1.33150200       2.73108700      -0.24389700
Zr       1.23892000       5.21224000      17.76038000       0.23269100      -1.36137000       0.19100000
Zr       6.50545000       1.72178000      15.51495000      -0.14581300       1.53287600      -0.37782700
Zr       1.05402000       4.18406000      13.97171000      -0.49351700       0.74488700       0.17543500
Zr       2.98786000       3.16673000      22.94488000       0.49351700      -0.74488700      -0.17543500
Zr       0.97624000       5.01805000      21.24293000      -0.01217300       1.40714400      -0.13913200
Zr       6.41158000       2.54927000      22.76685000      -0.17870700       1.22004000       0.15412400
Zr       4.26503000       0.34896000      21.40164000       0.14581300      -1.53287600       0.37782700
Zr       3.06563000       2.33275000      15.67365000       0.01217300      -1.40714400       0.13913200
Zr       6.68458000       2.74901000      19.31015000       0.05655100      -1.29007900       0.24791800
Zr       4.67668000       4.60178000      17.60644000      -0.05655100       1.29007900      -0.24791800
Zr       2.80296000       2.13855000      19.15620000      -0.23269100       1.36137000      -0.19100000
Zr       4.94968000       4.80153000      14.14973000       0.17870700      -1.22004000      -0.15412400
Zr       1.40310000       4.47696000      10.55711000      -2.22178400      -1.18850300      -1.93031900
60
Lattice="7.319381 0.0 0.0 0.590781 5.280052 0.0 0.0 0.0 36.916585" Properties=species:S:1:pos:R:3:forces:R:3 energy=-563.41396956 stress="36.21186 9.97872 10.87815 9.97872 18.79531 17.13385 10.87815 17.13385 48.86308" pbc="T T T"
O        4.71669000       2.75517000      18.82641000       0.20937600       0.78766500      -0.47741400
O        3.80717000       0.18373000      19.42860000      -0.38348000       0.85938600       0.10563200
O        6.96331000       1.88701000      17.48798000       0.38348000      -0.85938600      -0.10563200
O        2.81717000       3.81425000      17.46676000      -0.90742000      -0.97221600      -0.53407200
O        1.22471000       3.53654000      19.44983000       0.90742000       0.97221600       0.53407200
O        0.85304000       0.90544000      19.52472000       0.61610600       1.03760600       0.82777200
O        2.59806000       1.16530000      17.39187000      -0.61610600      -1.03760600      -0.82777200
O        2.94322000       5.00948000      21.72581000      -0.16233300      -0.86410400       0.48835000
O        1.01057000       3.16790000      22.46596000       0.14676800       0.67667900      -0.27077400
O        0.10238000       0.60030000      23.05592000      -0.21377800       1.16581500       1.09719900
O        0.66261000       1.75771000      26.90462000       0.53392900       1.14751200      -0.04183000
O        3.26092000       2.30166000      21.12189000       0.32088400      -0.81193300      -0.14148100
O        4.84803000       3.94297000      23.08333000       0.87163600       0.77124000       0.32340100
O        4.47340000       1.33191000      23.14835000       0.43743900       1.08023700       1.14835600
O        6.21573000       1.58178000      21.02989000      -0.68793900      -0.92266000      -0.88377700
O        5.96673000       0.11045000      25.37329000       0.96166900      -0.66078500       0.44782300
O        4.66121000       3.56922000      26.15984000      -0.74303100       0.20418400       0.92893900
O        3.72112000       1.00016000      26.65369000      -1.23293300       1.80266900       1.49832200
O        6.85160000       2.77022000      24.82902000       0.76561600      -2.08839400      -2.95156400
O        2.73088000       4.62471000      24.73678000      -1.15128800      -0.82777700      -0.53019200
O        1.14667000       4.30527000      26.71042000       1.30116700       0.72982300       0.42948900
O        6.43570000       4.22646000      21.10338000      -0.90971300      -1.02900000      -0.58345400
O        6.64457000       4.59562000      18.09017000      -0.20937600      -0.78766500       0.47741400
O        2.51408000       2.02225000      24.67767000      -1.37406100      -1.05075700      -1.34229100
O        6.70005000       3.78157000      10.75675000       0.74303100      -0.20418400      -0.92893900
O        1.31100000       2.72608000      12.17980000       1.15128800       0.82777700       0.53019200
O        0.93702000       0.04849000      12.23892000       1.37406100       1.05075700       1.34229100
O        2.78849000       0.31303000      10.01197000      -0.53392900      -1.14751200       0.04183000
O        6.29708000       0.73883000      13.76824000      -0.43743900      -1.08023700      -1.14835600
O        4.50966000       4.58057000      12.08756000      -0.76561600       2.08839400       2.95156400
O        4.80375000       1.96029000      11.54329000      -0.96166900       0.66078500      -0.44782300
O        2.89521000       3.04552000      10.20617000      -1.30116700      -0.72982300      -0.42948900
O        3.03131000       4.18290000      14.45063000      -0.14676800      -0.67667900       0.27077400
O        7.04936000       1.07057000      10.26289000       1.23293300      -1.80266900      -1.49832200
O        0.78095000       5.04913000      15.79470000      -0.32088400       0.81193300       0.14148100
O        3.34872000       1.47044000      13.86067000       0.21377800      -1.16581500      -1.09719900
O        6.51323000       3.40782000      13.83325000      -0.87163600      -0.77124000      -0.32340100
O        4.92556000       3.12433000      15.81320000       0.90971300       1.02900000       0.58345400
O        4.55475000       0.48896000      15.88669000       0.68793900       0.92266000       0.88377700
O        1.09866000       2.34131000      15.19077000       0.16233300       0.86410400      -0.48835000
Zr       6.70307000       3.45041000      26.52223000      -0.78395600       0.46584600       1.09803300
Zr       3.98551000       0.19536000      24.95404000       0.70200600       0.35650000      -0.08487500
Zr       2.64936000       2.89868000      26.37017000       1.80501300       0.46299300       1.00176700
Zr       0.59198000       0.76576000      25.12056000      -1.02693400      -2.16990700       0.62153500
Zr       6.78497000       1.87538000      11.96255000      -0.70200600      -0.35650000       0.08487500
Zr       4.65819000       3.90038000      10.39435000       0.78395600      -0.46584600      -1.09803300
Zr       2.85912000       1.30498000      11.79603000       1.02693400       2.16990700      -0.62153500
Zr       1.23997000       5.20079000      17.75957000       0.18333100      -1.06816900       0.17761300
Zr       6.50424000       1.73360000      15.51653000      -0.12047700       1.19413800      -0.36566800
Zr       1.05694000       4.19568000      13.96901000      -0.46750000       0.54709700       0.20255800
Zr       2.98494000       3.15511000      22.94757000       0.46750000      -0.54709700      -0.20255800
Zr       0.97835000       5.02885000      21.24033000      -0.03380000       1.12030900      -0.08808500
Zr       6.41187000       2.56121000      22.77131000      -0.18782000       0.92527900      -0.04475600
Zr       4.26624000       0.33714000      21.40006000       0.12047700      -1.19413800       0.36566800
Zr       3.06353000       2.32195000      15.67625000       0.03380000      -1.12030900       0.08808500
Zr       6.68233000       2.73790000      19.31267000       0.07211100      -1.01166900       0.18103100
Zr       4.67893000       4.61289000      17.60392000      -0.07211100       1.01166900      -0.18103100
Zr       2.80191000       2.15000000      19.15702000      -0.18333100       1.06816900      -0.17761300
Zr       4.94939000       4.78959000      14.14527000       0.18782000      -0.92527900       0.04475600
Zr       1.39252000       4.45211000      10.54641000      -1.80501300      -0.46299300      -1.00176700
60
Lattice="7.319381 0.0 0.0 0.590781 5.280052 0.0 0.0 0.0 36.916585" Properties=species:S:1:pos:R:3:forces:R:3 energy=-566.99704841 stress="25.20023 9.83861 5.16191 9.83861 13.57707 7.3771 5.16191 7.3771 17.00321" pbc="T T T"
O        4.75699000       2.80859000      18.79665000      -0.60605100       0.29864600      -0.26076200
O        3.78339000       0.24454000      19.46155000      -0.21162600       0.27822400      -0.34924000
O        6.98709000       1.82620000      17.45503000       0.21162600      -0.27822400       0.34924000
O        2.80270000       3.74512000      17.42105000      -0.70456000      -0.64191000      -0.12572000
O        1.23917000       3.60567000      19.49554000       0.70456000       0.64191000       0.12572000
O        0.90537000       0.97197000      19.53357000       0.15803300       0.60596200       0.64154600
O        2.54572000       1.09877000      17.38302000      -0.15803300      -0.60596200      -0.64154600
O        2.90514000       4.95241000      21.75601000       0.63427600      -0.25603200       0.20710100
O        1.04676000       3.21576000      22.44677000      -0.29165400       0.51775300      -0.41743300
O        0.08571000       0.67606000      23.13317000      -0.11280200       0.00562900      -0.29325400
O        0.68440000       1.83537000      26.89967000      -0.20473300       0.93093700       0.14679800
O        3.28153000       2.24320000      21.08675000       0.29833900      -0.33204000       0.59214100
O        4.86216000       4.00076000      23.11856000       0.79126700       1.06235600       0.41878200
O        4.51796000       1.40351000      23.16914000      -0.09114600       0.17526300       1.21474000
O        6.15995000       1.52122000      21.01894000      -0.21284500      -0.89762100      -0.72358800
O        5.98039000       0.05464000      25.40448000      -0.63437800      -0.99225200       0.79099400
O        4.66386000       3.59175000      26.21132000       0.01772900       0.54096800       0.73347700
O        3.65689000       1.10221000      26.74022000      -0.31333300       0.35795100       0.15540900
O        6.88624000       2.66553000      24.67999000       0.16246400       0.05735500       2.82581500
O        2.70427000       4.55789000      24.69079000       0.22239600      -0.21486700       0.29667200
O        1.18093000       4.34818000      26.74841000       0.23605900       0.17486000       0.43841300
O        6.42127000       4.15418000      21.05553000      -0.68429300      -0.41273300      -0.11576600
O        6.60427000       4.54221000      18.11994000       0.60605100      -0.29864600       0.26076200
O        2.42609000       1.96226000      24.64818000      -0.09497500      -0.52548700       0.13623000
O        6.69740000       3.75905000      10.70527000      -0.01772900      -0.54096800      -0.73347700
O        1.33761000       2.79290000      12.22579000      -0.22239600       0.21486700      -0.29667200
O        1.02501000       0.10848000      12.26840000       0.09497500       0.52548700      -0.13623000
O        2.76670000       0.23537000      10.01691000       0.20473300      -0.93093700      -0.14679800
O        6.25251000       0.66723000      13.74744000       0.09114600      -0.17526300      -1.21474000
O        4.47502000       4.68526000      12.23660000      -0.16246400      -0.05735500      -2.82581500
O        4.79008000       2.01610000      11.51211000       0.63437800       0.99225200      -0.79099400
O        2.86094000       3.00261000      10.16818000      -0.23605900      -0.17486000      -0.43841300
O        2.99512000       4.13503000      14.46982000       0.29165400      -0.51775300       0.41743300
O        7.11359000       0.96853000      10.17637000       0.31333300      -0.35795100      -0.15540900
O        0.76035000       5.10759000      15.82983000      -0.29833900       0.33204000      -0.59214100
O        3.36539000       1.39468000      13.78341000       0.11280200      -0.00562900       0.29325400
O        6.49910000       3.35003000      13.79802000      -0.79126700      -1.06235600      -0.41878200
O        4.93999000       3.19661000      15.86105000       0.68429300       0.41273300       0.11576600
O        4.61053000       0.54952000      15.89764000       0.21284500       0.89762100       0.72358800
O        1.13674000       2.39838000      15.16057000      -0.63427600       0.25603200      -0.20710100
Zr       6.69566000       3.45981000      26.55440000       1.32779600      -0.82726200      -2.28867200
Zr       4.01029000       0.20415000      24.97332000      -1.12791600       0.75449500      -0.29499900
Zr       2.71825000       2.88355000      26.40125000      -0.32755300       0.09827800      -0.87287300
Zr       0.54884000       0.68523000      25.17311000       0.80786100      -0.51975300      -0.57703000
Zr       6.76019000       1.86659000      11.94327000       1.12791600      -0.75449500       0.29499900
Zr       4.66560000       3.89098000      10.36219000      -1.32779600       0.82726200       2.28867200
Zr       2.90225000       1.38551000      11.74347000      -0.80786100       0.51975300       0.57703000
Zr       1.24700000       5.16771000      17.76909000      -0.15170900      -0.63821800       0.40549700
Zr       6.50039000       1.77203000      15.49705000       0.03165700       0.58243500      -0.10037800
Zr       1.03070000       4.20409000      13.98250000       0.55058900       0.89631300       0.01625300
Zr       3.01117000       3.14670000      22.93409000      -0.55058900      -0.89631300      -0.01625300
Zr       0.97365000       5.06533000      21.24006000      -0.48821000       0.70356600       0.53354800
Zr       6.40264000       2.58686000      22.76261000       0.51942600       0.52491700      -0.88961400
Zr       4.27009000       0.29871000      21.41953000      -0.03165700      -0.58243500       0.10037800
Zr       3.06823000       2.28546000      15.67652000       0.48821000      -0.70356600      -0.53354800
Zr       6.68904000       2.70696000      19.31741000       0.21303900      -0.69893300      -0.06782300
Zr       4.67222000       4.64383000      17.59917000      -0.21303900       0.69893300       0.06782300
Zr       2.79488000       2.18308000      19.14749000       0.15170900       0.63821800      -0.40549700
Zr       4.95862000       4.76393000      14.15398000      -0.51942600      -0.52491700       0.88961400
Zr       1.32363000       4.46724000      10.51534000       0.32755300      -0.09827800       0.87287300
60
Lattice="7.319381 0.0 0.0 0.590781 5.280052 0.0 0.0 0.0 36.916585" Properties=species:S:1:pos:R:3:forces:R:3 energy=-567.00794658 stress="24.90021 9.82416 4.84735 9.82416 13.68128 6.9521 4.84735 6.9521 15.79763" pbc="T T T"
O        4.75945000       2.81185000      18.79483000      -0.65512500       0.26508900      -0.24776000
O        3.78193000       0.24826000      19.46357000      -0.19944300       0.23862200      -0.37779200
O        6.98855000       1.82248000      17.45302000       0.19944300      -0.23862200       0.37779200
O        2.80182000       3.74090000      17.41825000      -0.69574700      -0.62064000      -0.10004800
O        1.24006000       3.60989000      19.49833000       0.69574700       0.62064000       0.10004800
O        0.90857000       0.97603000      19.53411000       0.12835600       0.57971800       0.63438100
O        2.54253000       1.09471000      17.38248000      -0.12835600      -0.57971800      -0.63438100
O        2.90281000       4.94893000      21.75786000       0.68678900      -0.21380800       0.18662900
O        1.04898000       3.21868000      22.44560000      -0.31837900       0.50534300      -0.42249300
O        0.08469000       0.68070000      23.13789000      -0.10395500      -0.07749900      -0.37666800
O        0.68573000       1.84012000      26.89937000      -0.25204800       0.91045300       0.14991100
O        3.28279000       2.23963000      21.08461000       0.29608100      -0.29695900       0.64159300
O        4.86302000       4.00429000      23.12072000       0.78663200       1.07780000       0.42985100
O        4.52069000       1.40789000      23.17041000      -0.12540300       0.12105400       1.22136500
O        6.15654000       1.51752000      21.01827000      -0.18183300      -0.89377000      -0.71283500
O        5.98123000       0.05123000      25.40638000      -0.73458900      -1.00697100       0.80538900
O        4.66402000       3.59312000      26.21446000       0.06374300       0.56391200       0.72112000
O        3.65296000       1.10845000      26.74551000      -0.24535900       0.25164400       0.10884800
O        6.88835000       2.65913000      24.67088000       0.14288300       0.15784000       3.11324000
O        2.70265000       4.55381000      24.68798000       0.28832100      -0.17993600       0.34639800
O        1.18303000       4.35080000      26.75073000       0.18135700       0.14528300       0.44492000
O        6.42039000       4.14977000      21.05261000      -0.67490500      -0.37305400      -0.08617400
O        6.60181000       4.53894000      18.12176000       0.65512500      -0.26508900       0.24776000
O        2.42071000       1.95859000      24.64638000      -0.01116700      -0.50554700       0.21080500
O        6.69723000       3.75767000      10.70212000      -0.06374300      -0.56391200      -0.72112000
O        1.33923000       2.79698000      12.22860000      -0.28832100       0.17993600      -0.34639800
O        1.03039000       0.11215000      12.27020000       0.01116700       0.50554700      -0.21080500
O        2.76536000       0.23062000      10.01722000       0.25204800      -0.91045300      -0.14991100
O        6.24979000       0.66285000      13.74617000       0.12540300      -0.12105400      -1.22136500
O        4.47291000       4.69166000      12.24571000      -0.14288300      -0.15784000      -3.11324000
O        4.78925000       2.01951000      11.51020000       0.73458900       1.00697100      -0.80538900
O        2.85885000       2.99999000      10.16586000      -0.18135700      -0.14528300      -0.44492000
O        2.99290000       4.13211000      14.47099000       0.31837900      -0.50534300       0.42249300
O        7.11752000       0.96229000      10.17108000       0.24535900      -0.25164400      -0.10884800