60
Lattice="7.319381 0.0 0.0 -3.110628 6.756033 0.0 0.0 -0.0 33.818147" Properties=species:S:1:pos:R:3:forces:R:3 energy=-551.24688086 stress="66.7615 -7.91037 -10.01916 -7.91037 34.88609 5.64191 -10.01916 5.64191 68.46669" pbc="T T T"
O        0.38572000       0.61635000      16.35439000       2.95108200       0.94507500      -1.45725400
O        3.83048000       5.43920000      18.13494000      -0.56984500       3.18955100       1.27381400
O       -0.37938000       6.08998000      15.68321000       0.56984500      -3.18955100      -1.27381400
O        2.11396000       3.24719000      17.43846000       2.71561900      -3.01055000      -0.45806000
O        4.44776000       1.52597000      16.37968000      -2.71561900       3.01055000       0.45806000
O        0.75896000       6.23307000      18.01758000       2.30517300      -0.08147900      -3.36596600
O        2.69214000       5.29612000      15.80056000      -2.30517300       0.08147900       3.36596600
O        2.47460000       6.46264000      20.30536000      -2.93735100      -1.28498800       1.93319400
O        4.00369000       2.92219000      19.19600000       2.92959400       0.99212100      -1.48204300
O        3.23970000       0.98901000      20.97654000      -0.54225600       2.67423800       0.54675900
O        3.78615000       4.08871000      23.70079000       0.06753100       1.28583300      -1.55075400
O        6.34922000       1.63979000      18.52481000       0.55291500      -3.27168100      -1.27544500
O        0.74635000       3.83180000      19.22129000      -2.71441400       3.06770300       0.46329700
O        0.16817000       1.78287000      20.85919000       2.14642700      -0.02203200      -3.86429700
O        2.10136000       0.84593000      18.64217000      -2.31432700       0.05765100       3.32362100
O        1.88382000       2.01245000      23.14696000      -1.54550200      -1.95113900       0.75958900
O        0.30228000       5.22802000      22.03760000       3.21630600       1.50689000      -0.49075900
O       -0.46171000       3.29485000      23.81815000      -0.84885700       1.66743600      -0.30372900
O        2.64781000       3.94563000      21.36641000       0.04593400      -1.55516100      -1.31022900
O        5.14115000       1.10283000      23.12167000       1.81333600      -3.62972700       0.74581500
O        4.36432000       6.13764000      22.06289000      -2.56205600       3.04891600       0.90263000
O       -1.58745000       5.55303000      20.28007000       2.67358800      -3.05716800      -0.23622400
O       -1.14337000       4.15681000      17.46375000      -2.95108200      -0.94507500       1.45725400
O        5.71933000       3.15176000      21.48377000      -2.13367600       1.03835300       2.96647000
O        3.14882000       6.30116000      11.78055000      -3.21630600      -1.50689000       0.49075900
O        1.42057000       3.67032000      10.69648000      -1.81333600       3.62972700      -0.74581500
O        0.84239000       1.62139000      12.33438000       2.13367600      -1.03835300      -2.96647000
O        2.77558000       0.68445000      10.11736000      -0.06753100      -1.28583300       1.55075400
O       -0.92583000       2.99028000      12.95896000      -2.14642700       0.02203200       3.86429700
O        3.91392000       0.82753000      12.45174000      -0.04593400       1.55516100       1.31022900
O        4.67791000       2.76071000      10.67119000       1.54550200       1.95113900      -0.75958900
O       -0.91323000       5.39155000      11.75526000       2.56205600      -3.04891600      -0.90263000
O        2.55804000       1.85097000      14.62215000      -2.92959400      -0.99212100       1.48204300
O       -0.29595000       1.47831000      10.00000000       0.84885700      -1.66743600       0.30372900
O        0.21251000       3.13337000      15.29334000      -0.55291500       3.27168100       1.27544500
O        3.32203000       3.78415000      12.84160000       0.54225600      -2.67423800      -0.54675900
O        5.81537000       0.94135000      14.59686000       2.71441400      -3.06770300      -0.46329700
O       -2.28084000       5.97616000      13.53808000      -2.67358800       3.05716800       0.23622400
O        4.46036000       3.92723000      15.17598000       2.31432700      -0.05765100      -3.32362100
O        0.97650000       5.06654000      13.51279000       2.93735100       1.28498800      -1.93319400
Zr       2.37680000       5.46746000      22.44423000       1.29440800      -0.89106600       1.19633300
Zr      -0.19071000       1.77301000      22.74033000       0.08279100       1.49408200       3.04689800
Zr      -1.49655000       4.99562000      22.54880000      -0.33037200      -4.99913400       1.53066500
Zr       3.68264000       2.24486000      22.63576000      -0.85847800       3.05215900       0.34706300
Zr      -0.56695000       3.00014000      11.07782000      -0.08279100      -1.49408200      -3.04689800
Zr       1.07429000       6.06173000      11.37392000      -1.29440800       0.89106600      -1.19633300
Zr       2.87908000       2.52830000      11.18239000       0.85847800      -3.05215900      -0.34706300
Zr       0.65545000       4.38921000      16.95255000      -0.15962200       1.42346100      -0.76309800
Zr      -0.82233000       4.83414000      14.02399000      -0.05469400      -1.76809300       0.88470200
Zr       0.48351000       1.61153000      14.21552000      -0.34267500      -1.09272900       1.00661800
Zr      -1.24117000       3.16162000      19.60263000       0.34267500       1.09272900      -1.00661800
Zr       0.40007000       6.22321000      19.89872000      -0.46197000      -0.75969400       1.09977100
Zr       2.20486000       2.68978000      19.70720000       0.09884400      -1.68229700       0.90912200
Zr      -3.04596000       6.69505000      19.79415000       0.05469400       1.76809300      -0.88470200
Zr       3.05102000       5.30598000      13.91942000       0.46197000       0.75969400      -1.09977100
Zr       2.46024000       0.85578000      16.76103000       0.30710700       1.20067700      -1.12383000
Zr       4.10148000       3.91737000      17.05712000      -0.30710700      -1.20067700       1.12383000
Zr       5.90627000       0.38394000      16.86560000       0.15962200      -1.42346100       0.76309800
Zr       4.35686000       2.08338000      14.11095000      -0.09884400       1.68229700      -0.90912200
Zr      -2.37174000       6.53357000      11.26934000       0.33037200       4.99913400      -1.53066500
60
Lattice="7.319381 0.0 0.0 -3.110628 6.756033 0.0 0.0 0.0 33.818147" Properties=species:S:1:pos:R:3:forces:R:3 energy=-562.55109289 stress="17.48476 15.81073 3.91526 15.81073 35.86928 25.11643 3.91526 25.11643 28.79371" pbc="T T T"
O        0.52808000       0.66194000      16.28409000      -0.19159000       0.40188000      -0.84064000
O        3.80299000       5.59308000      18.19639000      -0.32935500       0.35039600      -0.72071400
O       -0.35189000       5.93611000      15.62175000       0.32935500      -0.35039600       0.72071400
O        2.24497000       3.10195000      17.41637000      -1.39643300      -1.02756800       0.27141500
O        4.31675000       1.67120000      16.40178000       1.39643300       1.02756800      -0.27141500
O        0.87016000       6.22914000      17.85520000       0.37003000       1.61010200       0.48342700
O        2.58093000       5.30005000      15.96295000      -0.37003000      -1.61010200      -0.48342700
O        2.33289000       6.40065000      20.39862000       0.45361500      -0.51541300       0.84667800
O        4.14502000       2.97005000      19.12450000      -0.18673800       0.31604900      -0.49193100
O        3.21354000       1.11802000      21.00292000      -0.18257700       1.85729400       0.27316500
O        3.78940000       4.15074000      23.62598000       0.60983300       0.77700800       0.03850400
O        6.37589000       1.48195000      18.46328000       0.31785200      -0.17380000       0.64283500
O        0.61540000       3.97980000      19.24364000       1.30281800       0.75333100      -0.15814200
O        0.27172000       1.78181000      20.67276000       0.17378400       2.25920600       1.40594600
O        1.98971000       0.84871000      18.80251000      -0.50089500      -1.40043300      -0.65444600
O        1.80926000       1.91832000      23.18360000       0.16284800      -0.53532600       0.99015900
O        0.45744000       5.30072000      22.01392000      -1.04055600       0.04271600       0.85450300
O       -0.50266000       3.37529000      23.80349000      -0.89425500       3.36271300       2.30060400
O        2.65002000       3.87060000      21.30320000       0.73530400      -1.38544700       0.36573900
O        5.22863000       0.92772000      23.15765000      -0.14116700      -0.06102600       0.38813200
O        4.24072000       6.28473000      22.10643000       1.46022400       0.02045300       0.80377900
O       -1.45846000       5.40554000      20.26867000      -1.30031700      -1.17042400       0.30829100
O       -1.28574000       4.11121000      17.53406000       0.19159000      -0.40188000       0.84064000
O        5.61640000       3.20186000      21.62688000      -0.97019900      -2.38521300      -0.83612800
O        2.99366000       6.22847000      11.80422000       1.04055600      -0.04271600      -0.85450300
O        1.33309000       3.84543000      10.66050000       0.14116700       0.06102600      -0.38813200
O        0.94533000       1.57130000      12.19127000       0.97019900       2.38521300       0.83612800
O        2.77232000       0.62241000      10.19217000      -0.60983300      -0.77700800      -0.03850400
O       -1.02938000       2.99135000      13.14539000      -0.17378400      -2.25920600      -1.40594600
O        3.91170000       0.90255000      12.51494000      -0.73530400       1.38544700      -0.36573900
O        4.75247000       2.85484000      10.63454000      -0.16284800       0.53532600      -0.99015900
O       -0.78963000       5.24446000      11.71171000      -1.46022400      -0.02045300      -0.80377900
O        2.41671000       1.80311000      14.69365000       0.18673800      -0.31604900       0.49193100
O       -0.25499000       1.39787000      10.01465000       0.89425500      -3.36271300      -2.30060400
O        0.18583000       3.29120000      15.35487000      -0.31785200       0.17380000      -0.64283500
O        3.34819000       3.65513000      12.81523000       0.18257700      -1.85729400      -0.27316500
O        5.94632000       0.79336000      14.57451000      -1.30281800      -0.75333100       0.15814200
O       -2.40982000       6.12365000      13.54948000       1.30031700       1.17042400      -0.30829100
O        4.57201000       3.92445000      15.01564000       0.50089500       1.40043300       0.65444600
O        1.11820000       5.12854000      13.41953000      -0.45361500       0.51541300      -0.84667800
Zr       2.43925000       5.42447000      22.50195000       0.13561100       1.81242400      -0.60337000
Zr      -0.18671000       1.84509000      22.88732000       0.25190200      -3.04123000      -3.29431300
Zr      -1.51248000       4.75445000      22.62265000       0.66761100       3.35394600       0.03115400
Zr       3.64123000       2.39210000      22.65250000      -0.55937400      -2.69687500      -0.08021200
Zr      -0.57094000       2.92806000      10.93083000      -0.25190200       3.04123000       3.29431300
Zr       1.01185000       6.10472000      11.31620000      -0.13561100      -1.81242400       0.60337000
Zr       2.92050000       2.38106000      11.16565000       0.55937400       2.69687500       0.08021200
Zr       0.64775000       4.45789000      16.91574000       0.27392400      -0.84526400       0.93819400
Zr      -0.82497000       4.74884000      14.06667000       0.41816300       1.66696600      -1.30836500
Zr       0.46698000       1.55882000      14.26408000      -0.37048700       0.78755800       0.21874500
Zr      -1.22464000       3.21434000      19.55407000       0.37048700      -0.78755800      -0.21874500
Zr       0.37779000       6.18656000      19.95178000       0.68897000       0.70812300      -0.60551600
Zr       2.20963000       2.60862000      19.75106000      -0.12995600       0.91910900      -0.95026800
Zr       0.06731000       0.02432000      19.75147000      -0.41816300      -1.66696600       1.30836500
Zr       3.07331000       5.34263000      13.86637000      -0.68897000      -0.70812300       0.60551600
Zr       2.47506000       0.91371000      16.70681000       0.05737600      -1.11613500       0.92513700
Zr       4.08667000       3.85945000      17.11134000      -0.05737600       1.11613500      -0.92513700
Zr       5.91397000       0.31527000      16.90241000      -0.27392400       0.84526400      -0.93819400
Zr       4.35209000       2.16453000      14.06709000       0.12995600      -0.91910900       0.95026800
Zr       0.75483000       0.01871000      11.19550000      -0.66761100      -3.35394600      -0.03115400
60
Lattice="7.319381 0.0 0.0 -3.110628 6.756033 0.0 0.0 0.0 33.818147" Properties=species:S:1:pos:R:3:forces:R:3 energy=-563.01678858 stress="15.94864 13.92678 1.80694 13.92678 27.50019 20.64014 1.80694 20.64014 28.22914" pbc="T T T"
O        0.50166000       0.65348000      16.29714000       0.34027100       0.49875300      -0.94247400
O        3.80809000       5.56451000      18.18499000      -0.36666300       0.82851300      -0.39544200
O       -0.35699000       5.96468000      15.63316000       0.36666300      -0.82851300       0.39544200
O        2.22065000       3.12891000      17.42047000      -0.75739700      -1.24405300       0.08281600
O        4.34107000       1.64424000      16.39768000       0.75739700       1.24405300      -0.08281600
O        0.84952000       6.22987000      17.88534000       0.67776400       1.25814900      -0.04757200
O        2.60158000       5.29932000      15.93280000      -0.67776400      -1.25814900       0.04757200
O        2.35920000       6.41216000      20.38131000      -0.03151900      -0.64262800       1.01217000
O        4.11878000       2.96116000      19.13777000       0.32499000       0.43993700      -0.66110000
O        3.21840000       1.09407000      20.99802000      -0.27450900       1.95528200       0.25874900
O        3.78880000       4.13923000      23.63986000       0.47765400       0.86832900      -0.33788000
O        6.37094000       1.51125000      18.47470000       0.35050900      -0.70453700       0.33197800
O        0.63971000       3.95233000      19.23949000       0.70390900       1.02018300       0.02021000
O        0.25250000       1.78201000      20.70737000       0.44154600       1.76628800       0.76283700
O        2.01044000       0.84819000      18.77274000      -0.78672800      -1.09528400      -0.10411500
O        1.82310000       1.93579000      23.17680000      -0.10582200      -0.77706800       0.93405400
O        0.42864000       5.28723000      22.01832000      -0.50470800       0.30764100       0.69306400
O       -0.49506000       3.36036000      23.80621000      -0.97243500       3.08992100       1.70715100
O        2.64961000       3.88453000      21.31494000       0.59862200      -1.49039700       0.00471200
O        5.21240000       0.96023000      23.15097000      -0.01584200      -0.56402600       0.32564200
O        4.26367000       6.25742000      22.09835000       1.04438000       0.32641100       0.92747300
O       -1.48241000       5.43292000      20.27079000      -0.71457700      -1.35957800       0.16201100
O       -1.25931000       4.11968000      17.52101000      -0.34027100      -0.49875300       0.94247400
O        5.63551000       3.19256000      21.60032000      -1.05028800      -1.37856000      -0.02908100
O        3.02246000       6.24196000      11.79983000       0.50470800      -0.30764100      -0.69306400
O        1.34933000       3.81293000      10.66718000       0.01584200       0.56402600      -0.32564200
O        0.92622000       1.58060000      12.21783000       1.05028800       1.37856000       0.02908100
O        2.77293000       0.63393000      10.17828000      -0.47765400      -0.86832900       0.33788000
O       -1.01016000       2.99115000      13.11078000      -0.44154600      -1.76628800      -0.76283700
O        3.91211000       0.88863000      12.50321000      -0.59862200       1.49039700      -0.00471200
O        4.73863000       2.83736000      10.64134000       0.10582200       0.77706800      -0.93405400
O       -0.81257000       5.27176000      11.71980000      -1.04438000      -0.32641100      -0.92747300
O        2.44294000       1.81199000      14.68038000      -0.32499000      -0.43993700       0.66110000
O       -0.26260000       1.41280000      10.01193000       0.97243500      -3.08992100      -1.70715100
O        0.19079000       3.26190000      15.34345000      -0.35050900       0.70453700      -0.33197800
O        3.34333000       3.67908000      12.82012000       0.27450900      -1.95528200      -0.25874900
O        5.92202000       0.82083000      14.57866000      -0.70390900      -1.02018300      -0.02021000
O       -2.38588000       6.09627000      13.54736000       0.71457700       1.35957800      -0.16201100
O        4.55129000       3.92496000      15.04540000       0.78672800       1.09528400       0.10411500
O        1.09190000       5.11703000      13.43684000       0.03151900       0.64262800      -1.01217000
Zr       2.42766000       5.43245000      22.49123000       0.41994000       1.25073300      -0.26142800
Zr      -0.18745000       1.83171000      22.86003000       0.23715700      -2.01345800      -2.56228300
Zr      -1.50953000       4.79921000      22.60894000       0.47587000       1.46866100      -0.13019800
Zr       3.64892000       2.36477000      22.64939000      -0.34280500      -1.75564100       0.17111900
Zr      -0.57020000       2.94144000      10.95812000      -0.23715700       2.01345800       2.56228300
Zr       1.02344000       6.09674000      11.32691000      -0.41994000      -1.25073300       0.26142800
Zr       2.91281000       2.40839000      11.16876000       0.34280500       1.75564100      -0.17111900
Zr       0.64918000       4.44514000      16.92257000       0.20009800      -0.57604100       0.70612800
Zr      -0.82448000       4.76467000      14.05875000       0.35012900       1.12775900      -1.02386100
Zr       0.47005000       1.56860000      14.25507000      -0.35689200       0.61817400       0.31766500
Zr      -1.22770000       3.20455000      19.56308000       0.35689200      -0.61817400      -0.31766500
Zr       0.38192000       6.19336000      19.94193000       0.47379500       0.53380900      -0.45648200
Zr       2.20875000       2.62369000      19.74292000      -0.12403000       0.59507700      -0.73464700
Zr       0.06682000       0.00848000      19.75939000      -0.35012900      -1.12775900       1.02386100
Zr       3.06917000       5.33583000      13.87622000      -0.47379500      -0.53380900       0.45648200
Zr       2.47231000       0.90296000      16.71687000       0.08216400      -0.82791400       0.64841100
Zr       4.08942000       3.87020000      17.10127000      -0.08216400       0.82791400      -0.64841100
Zr       5.91254000       0.32802000      16.89558000      -0.20009800       0.57604100      -0.70612800
Zr       4.35298000       2.14947000      14.07523000       0.12403000      -0.59507700       0.73464700
Zr       0.75187000      -0.02606000      11.20921000      -0.47587000      -1.46866100       0.13019800
60
Lattice="7.319381 0.0 0.0 -3.110628 6.756033 0.0 0.0 0.0 33.818147" Properties=species:S:1:pos:R:3:forces:R:3 energy=-566.37552707 stress="7.27463 15.06626 -1.72509 15.06626 2.77261 6.30468 -1.72509 6.30468 12.90009" pbc="T T T"
O        0.54694000       0.68609000      16.23880000      -0.65791100       0.06047800      -0.22181200
O        3.78537000       5.63486000      18.17934000      -0.24117300       0.14404800      -0.51060200
O       -0.33427000       5.89433000      15.63881000       0.24117300      -0.14404800       0.51060200
O        2.21260000       3.04105000      17.41974000      -0.71926600      -0.49075700       0.15985800
O        4.34913000       1.73210000      16.39841000       0.71926600       0.49075700      -0.15985800
O        0.90403000       6.28749000      17.84951000       0.21710400       0.89924000       0.29094100
O        2.54707000       5.24169000      15.96864000      -0.21710400      -0.89924000      -0.29094100
O        2.32839000       6.36947000      20.44764000       0.60640700      -0.19785100       0.55968200
O        4.16315000       2.99151000      19.09226000      -0.56360400       0.16868600      -0.63145900
O        3.20023000       1.21161000      21.01551000      -0.06306600      -0.26190500      -1.08130500
O        3.81166000       4.19241000      23.60868000      -0.16691100       0.41920100      -0.66636800
O        6.39275000       1.44584000      18.47738000       0.32224200      -0.29168800       0.51544000
O        0.64529000       4.03036000      19.24505000       0.90248600       0.82456800      -0.37170400
O        0.29445000       1.86383000      20.70420000       0.06350100       0.37612300       0.29373400
O        1.95077000       0.79789000      18.80111000      -0.25350900      -1.08027900      -0.11655100
O        1.80275000       1.88021000      23.22778000      -0.72726600      -0.78873400       0.74253700
O        0.43732000       5.31657000      22.04561000       0.00829700       0.69711700      -0.12192200
O       -0.54871000       3.52054000      23.88248000      -0.34047600      -0.54119700      -1.11895900
O        2.67788000       3.79976000      21.30207000       0.19484000      -0.17082100       0.48058300
O        5.22977000       0.89777000      23.17355000       0.24689600      -0.55907400       0.06265000
O        4.28659000       6.30304000      22.15045000       1.00855200       1.34593300       0.00712700
O       -1.48889000       5.33923000      20.27595000      -0.42130100      -0.08970400      -0.07001300
O       -1.30460000       4.08707000      17.57934000       0.65791100      -0.06047800       0.22181200
O        5.56540000       3.13889000      21.62860000      -0.19895300      -1.10589400      -0.47262400
O        3.01377000       6.21262000      11.77254000      -0.00829700      -0.69711700       0.12192200
O        1.33195000       3.87538000      10.64460000      -0.24689600       0.55907400      -0.06265000
O        0.99632000       1.63426000      12.18955000       0.19895300       1.10589400       0.47262400
O        2.75006000       0.58075000      10.20947000       0.16691100      -0.41920100       0.66636800
O       -1.05211000       2.90932000      13.11395000      -0.06350100      -0.37612300      -0.29373400
O        3.88385000       0.97339000      12.51608000      -0.19484000       0.17082100      -0.48058300
O        4.75898000       2.89295000      10.59037000       0.72726600       0.78873400      -0.74253700
O       -0.83549000       5.22614000      11.66770000      -1.00855200      -1.34593300      -0.00712700
O        2.39858000       1.78164000      14.72589000       0.56360400      -0.16868600       0.63145900
O       -0.20894000       1.25261000       9.93567000       0.34047600       0.54119700       1.11895900
O        0.16898000       3.32731000      15.34077000      -0.32224200       0.29168800      -0.51544000
O        3.36150000       3.56154000      12.80264000       0.06306600       0.26190500       1.08130500
O        5.91643000       0.74280000      14.57309000      -0.90248600      -0.82456800       0.37170400
O       -2.37939000       6.18996000      13.54219000       0.42130100       0.08970400       0.07001300
O        4.61095000       3.97527000      15.01704000       0.25350900       1.08027900       0.11655100
O        1.12270000       5.15972000      13.37051000      -0.60640700       0.19785100      -0.55968200
Zr       2.46010000       5.48165000      22.49104000      -0.45059000      -0.42369500       0.16445700
Zr      -0.17561000       1.75311000      22.77145000      -0.58034400       2.26372600       0.49159200
Zr      -1.49072000       4.81750000      22.61818000       0.71467300      -0.70903900       0.74281400
Zr       3.62442000       2.31370000      22.66081000       0.30516900       0.03188700       0.84921600
Zr      -0.58205000       3.02005000      11.04670000       0.58034400      -2.26372600      -0.49159200
Zr       0.99100000       6.04754000      11.32711000       0.45059000       0.42369500      -0.16445700
Zr       2.93731000       2.45945000      11.15734000      -0.30516900      -0.03188700      -0.84921600
Zr       0.65688000       4.43260000      16.94775000      -0.08988400      -0.53837400       0.65463000
Zr      -0.80876000       4.79940000      14.02003000      -0.30935400       0.69084900      -0.71664100
Zr       0.45005000       1.58640000      14.27988000       0.30608600       0.31448600      -1.04489200
Zr      -1.20770000       3.18675000      19.53827000      -0.30608600      -0.31448600       1.04489200
Zr       0.39932000       6.21057000      19.93171000      -0.84520000       0.44176500       0.48317200
Zr       2.20397000       2.63452000      19.71787000       0.52048900       0.87772500      -0.31165700
Zr       0.05110000      -0.02624000      19.79812000       0.30935400      -0.69084900       0.71664100
Zr       3.05178000       5.31862000      13.88643000       0.84520000      -0.44176500      -0.48317200
Zr       2.47919000       0.87649000      16.73577000       0.34799800      -0.39795300       0.28109600
Zr       4.08253000       3.89666000      17.08238000      -0.34799800       0.39795300      -0.28109600
Zr       5.90484000       0.34056000      16.87040000       0.08988400       0.53837400      -0.65463000
Zr       4.35775000       2.13863000      14.10027000      -0.52048900      -0.87772500       0.31165700
Zr       0.73306000      -0.04434000      11.19997000      -0.71467300       0.70903900      -0.74281400
60
Lattice="7.319381 0.0 0.0 -3.110628 6.756033 0.0 0.0 0.0 33.818147" Properties=species:S:1:pos:R:3:forces:R:3 energy=-566.41516141 stress="6.66106 15.03755 -2.44263 15.03755 1.23057 5.14796 -2.44263 5.14796 11.87282" pbc="T T T"
O        0.55423000       0.69133000      16.22942000      -0.82025500      -0.02537800      -0.08104100
O        3.78171000       5.64618000      18.17843000      -0.21495900       0.01454500      -0.52773900
O       -0.33061000       5.88301000      15.63971000       0.21495900      -0.01454500       0.52773900
O        2.21130000       3.02691000      17.41962000      -0.71837300      -0.36159300       0.17391200
O        4.35042000       1.74624000      16.39852000       0.71837300       0.36159300      -0.17391200
O        0.91280000       6.29677000      17.84374000       0.13643300       0.83294800       0.34528300
O        2.53830000       5.23242000      15.97440000      -0.13643300      -0.83294800      -0.34528300
O        2.32344000       6.36260000      20.45831000       0.72142300      -0.11475100       0.45768100
O        4.17028000       2.99639000      19.08493000      -0.71167900       0.12070900      -0.61410200
O        3.19730000       1.23053000      21.01832000      -0.04076500      -0.62618800      -1.30605800
O        3.81534000       4.20096000      23.60366000      -0.26767100       0.36509900      -0.70630500
O        6.39625000       1.43532000      18.47781000       0.31094700      -0.20405500       0.54636100
O        0.64619000       4.04292000      19.24595000       0.93260200       0.78721400      -0.43513200
O        0.30121000       1.87700000      20.70369000       0.00770400       0.17541500       0.21584200
O        1.94117000       0.78979000      18.80567000      -0.16631000      -1.07149500      -0.11286400
O        1.79947000       1.87126000      23.23598000      -0.81538000      -0.77780300       0.70167500
O        0.43872000       5.32129000      22.05000000       0.08097800       0.74836600      -0.24212100
O       -0.55734000       3.54632000      23.89475000      -0.31433000      -0.69997000      -1.29324300
O        2.68243000       3.78612000      21.30000000       0.13305500       0.02909300       0.52423500
O        5.23257000       0.88772000      23.17718000       0.27712700      -0.54231600       0.02525500
O        4.29028000       6.31039000      22.15883000       1.02011300       1.47512700      -0.14840300
O       -1.48994000       5.32415000      20.27678000      -0.39711500       0.10892300      -0.10023400
O       -1.31189000       4.08182000      17.58873000       0.82025500       0.02537800       0.08104100
O        5.55412000       3.13026000      21.63315000      -0.05384400      -1.07847800      -0.51436100
O        3.01238000       6.20790000      11.76815000      -0.08097800      -0.74836600       0.24212100
O        1.32915000       3.88544000      10.64097000      -0.27712700       0.54231600      -0.02525500
O        1.00760000       1.64290000      12.18500000       0.05384400       1.07847800       0.51436100
O        2.74638000       0.57219000      10.21449000       0.26767100      -0.36509900       0.70630500
O       -1.05886000       2.89615000      13.11446000      -0.00770400      -0.17541500      -0.21584200
O        3.87930000       0.98703000      12.51815000      -0.13305500      -0.02909300      -0.52423500
O        4.76225000       2.90189000      10.58217000       0.81538000       0.77780300      -0.70167500
O       -0.83918000       5.21880000      11.65931000      -1.02011300      -1.47512700       0.14840300
O        2.39144000       1.77676000      14.73322000       0.71167900      -0.12070900       0.61410200
O       -0.20031000       1.22683000       9.92339000       0.31433000       0.69997000       1.29324300