240
Lattice="11.612468 0.0 0.0 -8.587304 12.14653 0.0 0.0 -0.0 39.342896" Properties=species:S:1:pos:R:3:forces:R:3 energy=-2179.18907401 stress="316.17618 -73.79498 -39.34803 -73.79498 177.04232 8.75945 -39.34803 8.75945 260.42144" pbc="T T T"
O       -0.44132000       5.43760000      28.78043000      -3.58449600      -2.22299500       2.17358000
O       -1.39112000       7.04120000      13.40347000      -1.50299700       3.25234600       2.57798600
O        2.03068000       8.59163000      11.99243000       1.81052500      -3.58184600      -3.91992400
O       -6.70814000      10.83170000      11.99701000       2.05557100      -2.81286100      -0.93297100
O        3.05405000      10.87440000      13.39888000      -3.61740000       2.43997900      -0.25438800
O       -4.43506000       7.34550000      12.55489000       2.71202200      -0.27542200      -2.53854800
O        5.07462000       8.28733000      12.84100000      -3.17870400      -1.15362500       2.66744800
O       -3.41224000       7.44527000      15.23331000      -3.17267700      -1.74280400       0.53057900
O       -5.28024000      10.51176000      14.14744000       2.49243800       1.39727700      -0.17026000
O        5.55532000       8.20330000      15.39590000      -1.53411400       2.70416200       1.37522000
O       -0.61422000       9.34966000      12.15501000       5.03697300       2.94147500      -0.87397500
O       -2.63534000       9.75373000      13.98486000       1.49201900      -2.36937900      -0.68050900
O       -1.61197000      12.03650000      15.39131000      -3.08232000       2.55002000       0.03686100
O        2.51138000       8.50760000      14.54732000       3.04112300       0.82099500      -3.15147000
O        0.40860000       9.44943000      14.83343000      -2.72569200      -0.70735400       2.19197100
O        3.53420000       8.60737000      17.22574000      -3.03623100      -1.67912200       0.43026400
O        1.66620000      11.67386000      16.13987000       2.88832200       1.61793300      -0.54250600
O        0.88930000       9.36540000      17.38832000      -1.43541200       2.73242700       1.33285300
O       -7.30136000      10.91583000      15.97729000       1.39793200      -2.79399100      -1.42800500
O       -0.13407000       7.08263000      15.98187000       3.47436700      -2.34203100       0.04884700
O       -1.98434000       7.12534000      17.38374000      -3.30514000       2.37068900       0.12280800
O        0.23830000      11.99380000      13.98944000       3.14603200      -2.61646800      -0.38022200
O       -2.15464000       9.66970000      16.53975000       3.04506900       0.93219700      -2.46319000
O        1.25378000       6.28317000      13.24088000      -1.84854200      -1.18490900       0.75310700
O        0.23096000       6.18340000      10.56246000       3.58450900       2.22296200      -2.17351800
O        9.37142000       3.02937000      27.35047000      -1.81054400       3.58190800       3.91995500
O        1.18076000       4.57980000      25.93943000       1.50299300      -3.25237900      -2.57801900
O        8.34805000       0.74660000      25.94401000       3.61725500      -2.43994100       0.25436000
O        6.49778000       0.78931000      27.34588000      -2.05611900       2.81323900       0.93274200
O        6.32748000       3.33367000      26.50189000       3.17868900       1.15359100      -2.66738800
O        4.22470000       4.27550000      26.78800000      -2.71192100       0.27538900       2.53856200
O        7.35030000       3.43344000      29.18031000       1.45709600      -0.42652900       1.46851700
O        9.77595000       0.42667000      28.09444000       3.10769600       2.44928700       0.71711700
O        4.70540000       4.19147000      29.34290000      -0.51581700       1.72693700       0.15414200
O       -1.87182000       7.12523000      10.84858000      -2.26938500      -0.92841900       1.42103800
O       -3.48526000       5.74190000      27.93186000       0.91645700      -2.50877800       1.07890900
O        1.83176000       1.95141000      29.33831000      -4.67555500      -2.00219400       0.70116400
O        1.66146000       4.49577000      28.49432000       2.26921100       0.92826900      -1.42100200
O       -2.63220000      10.56904000      28.49432000       2.26938500       0.92841900      -1.42103800
O        1.62615000      11.19434000      11.24846000      -3.10858900      -2.44956900      -0.71704700
O        4.05181000       8.18756000      10.16258000      -1.45716000       0.42651300      -1.46852200
O       -1.01875000      11.95236000      11.41104000      -0.91645700       2.50877800      -1.07890900
O       -4.91576000       7.42953000      10.00000000       0.51582400      -1.72683200      -0.15417400
O       -2.04212000       9.66960000      10.00458000       4.67562100       2.00223100      -0.70114500
O       -3.89239000       9.71230000      11.40646000      -4.09934700       1.52397200       0.66264300
O        3.68203000       1.90870000      27.93644000       4.09944100      -1.52396400      -0.66262300
O       -1.46414000       5.33783000      26.10201000       1.84849300       1.18489900      -0.75311500
O       -4.25742000      10.61153000      16.82586000      -3.06953100      -0.87326100       2.73879700
O        1.29383000       6.76270000      18.13230000       3.04366600       1.70588800      -0.48848600
O       -1.86868000       7.94054000      25.35804000      -1.49201900       2.36937900       0.68050900
O        1.55313000       9.49097000      23.94700000       1.53411400      -2.70416200      -1.37522000
O       -7.18570000      11.73103000      23.95158000       3.08233700      -2.55001900      -0.03686300
O        2.57650000      11.77374000      25.35346000      -3.14600900       2.61646600       0.38020300
O       -4.91262000       8.24484000      24.50946000       2.72569200       0.70735400      -2.19197100
O        4.59707000       9.18666000      24.79558000      -3.04112300      -0.82099500       3.15147000
O       -3.88980000       8.34461000      27.18789000      -5.03697300      -2.94147500       0.87397500
O       -5.75779000      11.41110000      26.10201000       1.84854200       1.18490900      -0.75310700
O        5.07777000       9.10264000      27.35047000      -1.81052500       3.58184600       3.91992400
O       -1.09177000      10.24900000      24.10958000       3.17267700       1.74280400      -0.53057900
O       -3.11289000      10.65307000      25.93943000       1.50299700      -3.25234600      -2.57798600
O        2.20413000       6.86257000      27.34588000      -2.05557100       2.81286100       0.93297100
O        2.03383000       9.40694000      26.50189000       3.17870400       1.15362500      -2.66744800
O       -0.06895000      10.34876000      26.78800000      -2.71202200       0.27542200       2.53854800
O        3.05665000       9.50671000      29.18031000       1.45716000      -0.42651300       1.46852200
O        5.48230000       6.49993000      28.09444000       3.10858900       2.44956900       0.71704700
O        0.41175000      10.26474000      29.34290000      -0.51582400       1.72683200       0.15417400
O       -7.77892000      11.81517000      27.93186000       0.91649500      -2.50877500       1.07890400
O       -0.61162000       7.98197000      27.93644000       4.09934700      -1.52397200      -0.66264300
O       -2.46190000       8.02467000      29.33831000      -4.67562100      -2.00223100       0.70114500
O        4.05440000       6.81987000      25.94401000       3.61740000      -2.43997900       0.25438800
O       -1.13182000       9.76947000      19.21817000      -2.92145800      -1.63863300       0.46796700
O        0.77623000       7.18251000      25.19546000      -2.49243800      -1.39727700       0.17026000
O       -0.24659000       7.08274000      22.51703000       3.06953100       0.87326100      -2.73879700
O       -3.77672000      10.52750000      19.38075000      -1.47169100       2.77450100       1.43360000
O       -0.35492000      12.07793000      17.96971000       1.48379200      -2.78823500      -1.47522500
O       -4.80009000       8.24473000      17.97430000       3.25054000      -2.42499900      -0.07378900
O        4.96210000       8.28744000      19.37617000      -3.30209100       2.41970100       0.07664400
O       -6.82067000      10.83180000      18.53218000       2.99622300       0.82291300      -2.60349800
O        2.68902000      11.77363000      18.81829000      -3.03390600      -0.84750500       2.63584700
O       -5.79785000      10.93157000      21.21060000      -3.04366600      -1.70588800       0.48848600
O       -3.37219000       7.92480000      20.12473000       2.92145800       1.63863300      -0.46796700
O        3.16972000      11.68960000      21.37318000      -1.48379100       2.78823400       1.47522000
O       -2.34937000       8.02456000      22.80315000      -3.04506900      -0.93219700       2.46319000
O       -0.72729000       7.16677000      19.96214000       1.47169100      -2.77450100      -1.43360000
O        0.29608000       9.44954000      21.36860000      -3.25054000       2.42499900       0.07378900
O        0.12578000      11.99390000      20.52461000       3.03390400       0.84750600      -2.63584800
O        2.31665000       6.86246000      20.81072000      -2.99622300      -0.82291300       2.60349800
O        1.14860000      12.09367000      23.20303000      -2.88832800      -1.61792700       0.54249500
O        3.57425000       9.08690000      22.11715000       3.03623100       1.67912200      -0.43026400
O        2.79735000       6.77844000      23.36561000      -1.39793200       2.79399100       1.42800500
O       -5.39331000       8.32887000      21.95457000       1.43541200      -2.73242700      -1.33285300
O       -2.51967000      10.56893000      21.95915000       3.30514000      -2.37068900      -0.12280800
O       -4.36995000      10.61164000      23.36103000      -3.47436700       2.34203100      -0.04884700
O        2.14635000       9.40683000      19.96673000       3.30209100      -2.41970100      -0.07664400
O        0.40385000       2.27134000      27.18789000      -5.03695300      -2.94146100       0.87397500
O       -4.73498000      11.51087000      28.78043000      -3.58450900      -2.22296200       2.17351800
O        0.03623000       4.53826000      16.82586000      -3.06953500      -0.87326200       2.73879200
O        9.25575000       2.21417000      19.37617000      -3.30209300       2.41970300       0.07664100
O       -2.52701000       4.75854000      18.53218000       2.99622300       0.82291000      -2.60350200
O        6.98267000       5.70036000      18.81829000      -3.03390400      -0.84750600       2.63584800
O       -0.14141000       1.27224000      12.55489000       2.71192100      -0.27538900      -2.53856200
O        7.34770000       4.80114000      13.39888000      -3.61725500       2.43994100      -0.25436000
O       -2.41449000       4.75843000      11.99701000       2.05611900      -2.81323900      -0.93274200
O        6.32434000       2.51837000      11.99243000       1.81054400      -3.58190800      -3.91995500
O        2.90253000       0.96793000      13.40347000      -1.50299300       3.25237900       2.57801900
O        3.67943000       3.27639000      12.15501000       5.03695300       2.94146100      -0.87397500
O        5.54743000       0.20991000      13.24088000      -1.84849300      -1.18489900       0.75311500
O       -1.50419000       4.85831000      21.21060000      -3.04367000      -1.70588900       0.48848500
O        6.80503000       2.43434000      14.54732000       3.04114200       0.82098900      -3.15147200
O        7.46337000       5.61634000      21.37318000      -1.48379200       2.78823500       1.47522500
O        3.56636000       1.09350000      19.96214000       1.47169200      -2.77450000      -1.43359800
O        6.44000000       3.33357000      19.96673000       3.30209300      -2.41970300      -0.07664100
O       -0.50644000       2.17147000      17.97430000       3.25053500      -2.42499700      -0.07379300
O        3.93873000       6.00467000      17.96971000       1.48379100      -2.78823400      -1.47522000
O        9.36828000       2.21406000      12.84100000      -3.17868900      -1.15359100       2.66738800
O        0.51693000       4.45423000      19.38075000      -1.47169200       2.77450000       1.43359800
O        2.68168000       5.96324000      15.39131000      -3.08233700       2.55001900       0.03686300
O        4.53195000       5.92053000      13.98944000       3.14600900      -2.61646600      -0.38020300
O        1.65831000       3.68047000      13.98486000       1.49200400      -2.36937100      -0.68050200
O        7.82785000       2.53411000      17.22574000      -3.03622400      -1.67912000       0.43026300
O        5.95986000       5.60060000      16.13987000       2.88832800       1.61792700      -0.54249500
O        5.18295000       3.29213000      17.38832000      -1.43540900       2.73242400       1.33285700
O       -3.00771000       4.84257000      15.97729000       1.39794400      -2.79401100      -1.42802700
O        4.58973000       3.37627000      21.36860000      -3.25053500       2.42499700       0.07379300
O        4.15958000       1.00937000      15.98187000       3.47437000      -2.34203000       0.04885200
O        2.13901000       3.59644000      16.53975000       3.04506300       0.93219900      -2.46318700
O        9.84897000       2.13003000      15.39590000      -1.53411200       2.70415200       1.37519700
O       -0.98659000       4.43849000      14.14744000       2.49240500       1.39727500      -0.17029400
O        0.88141000       1.37201000      15.23331000      -3.17271100      -1.74280700       0.53056600
O        8.89072000       3.11340000      24.79558000      -3.04114200      -0.82098900       3.15147200
O        3.16183000       3.69621000      19.21817000      -2.92145800      -1.63863300       0.46796800
O        5.58748000       0.68943000      18.13230000       3.04367000       1.70588900      -0.48848500
O        2.30931000       1.05207000      17.38374000      -3.30514200       2.37069000       0.12280900
O        4.41943000       5.92064000      20.52461000       3.03390600       0.84750500      -2.63584700
O        0.92146000       1.85153000      20.12473000       2.92145800       1.63863300      -0.46796800
O        4.70225000       3.37616000      14.83343000      -2.72570600      -0.70735600       2.19200400
O        5.91980000       5.12107000      11.24846000      -3.10769600      -2.44928700      -0.71711700
O        5.06988000       1.10924000      25.19546000      -2.49240500      -1.39727500       0.17029400
O        3.20188000       4.17573000      24.10958000       3.17271100       1.74280700      -0.53056600
O        2.42498000       1.86727000      25.35804000      -1.49200400       2.36937100       0.68050200
O       -0.62211000       1.35627000      10.00000000       0.51581700      -1.72693700      -0.15414200
O        5.84678000       3.41770000      23.94700000       1.53411200      -2.70415200      -1.37519700
O       -2.89204000       5.65777000      23.95158000       3.08232000      -2.55002000      -0.03686100
O        6.87015000       5.70047000      25.35346000      -3.14603200       2.61646800       0.38022200
O        1.94428000       1.95130000      22.80315000      -3.04506300      -0.93219900       2.46318700
O        4.04706000       1.00947000      22.51703000       3.06953500       0.87326200      -2.73879200
O       -0.07629000       4.53837000      23.36103000      -3.47437000       2.34203000      -0.04885200
O        1.77398000       4.49567000      21.95915000       3.30514200      -2.37069000      -0.12280900
O       -1.09966000       2.25560000      21.95457000       1.43540900      -2.73242400      -1.33285700
O        8.34546000       2.11429000      10.16258000      -1.45709600       0.42652900      -1.46851700
O       -0.61896000       2.17157000      24.50946000       2.72570600       0.70735600      -2.19200400
O        0.40126000       3.63904000      11.40646000      -4.09944100       1.52396400       0.66262300
O        4.52461000       0.11014000      10.56246000       3.58449600       2.22299500      -2.17358000
O        2.42183000       1.05196000      10.84858000      -2.26921100      -0.92826900       1.42100200
O        7.09100000       0.70517000      23.36561000      -1.39794400       2.79401100       1.42802700
O        7.86790000       3.01363000      22.11715000       3.03622400       1.67912000      -0.43026300
O        5.44225000       6.02041000      23.20303000      -2.88832200      -1.61793300       0.54250600
O        6.61030000       0.78920000      20.81072000      -2.99622300      -0.82291000       2.60350200
O        2.25153000       3.59633000      10.00458000       4.67555500       2.00219400      -0.70116400
O        3.27490000       5.87910000      11.41104000      -0.91649500       2.50877500      -1.07890400
Zr      -0.67318000      11.60191000      22.22036000      -0.45779700      -1.44998900       0.87509700
Zr       1.78814000       8.48695000      22.08607000       0.13712800      -1.57763900       0.59250600
Zr      -4.38410000       6.62035000      23.23411000      -0.11779900       1.50080900      -0.80391000
Zr      -1.44523000       2.60606000      11.14525000       3.55868700       0.50813100      -1.70012300
Zr       4.09803000       4.62930000      10.26579000      -4.07430300      -3.28972000       1.45293200
Zr      -6.21644000       9.57866000      23.09982000       0.52611900       1.51742500      -1.16117700
Zr       6.55934000       1.51435000      10.13150000      -1.45042900      -1.36697900       3.88917700
Zr       5.50121000       3.76816000      13.13768000      -0.58116500       1.73011600       0.38320600
Zr       0.83519000       4.93026000      15.13011000       0.31377800       1.14407100      -1.26726000
Zr      -7.54391000      10.81115000      26.07093000       0.74238400      -1.46032900      -0.59862000
Zr       5.90089000       7.85284000      26.20522000       0.58118800      -1.73001000      -0.38334200
Zr      -3.93602000      11.90286000      27.08468000      -0.38952600       1.10225700       2.41703100
Zr      -0.56800000       5.79141000      12.25822000       0.38952600      -1.10225700      -2.41703100
Zr       1.89332000       2.67645000      12.12393000      -1.33779700      -2.57949000      -2.65191400
Zr       7.33355000       0.80985000      13.27197000      -0.74246200       1.46034000       0.59863600
Zr       0.73001000      10.74076000      25.09225000       0.02916100       1.10340200      -1.00642800
Zr      -4.30839000       6.99170000      29.07711000       4.07454400       3.28987200      -1.45276900
Zr      -1.04555000       6.69074000      24.21279000      -0.31374200      -1.14406600       1.26727100
Zr       2.56234000       7.78246000      25.22654000      -1.01969900       1.45429200      -0.82823000
Zr      -2.10368000       8.94456000      27.21897000       1.33790500       2.57940900       2.65189100
Zr      -0.59747000      11.97325000      28.06336000      -1.20648500      -5.53417400       0.12598500
Zr       1.23487000       9.01494000      28.19765000      -3.55867600      -0.50811100       1.70017100
Zr       2.66752000       1.97195000      15.26440000      -0.37794200       1.31709200      -1.21214400
Zr       8.83976000       3.83855000      14.11636000       1.01961900      -1.45430200       0.82836900
Zr      10.67210000       0.88024000      14.25065000      -0.02915800      -1.10339800       1.00654300
Zr      -2.87789000       9.64905000      24.07850000       0.37797100      -1.31710300       1.21211700
Zr      -6.76971000      10.10666000      29.21140000       1.45039500       1.36699900      -3.88910400
Zr       2.18997000       2.87129000      27.21897000       1.33779700       2.57949000       2.65191400
Zr       4.17374000       5.00065000      16.10879000       0.11780800      -1.50080900       0.80389200
Zr      -4.86165000      11.86467000      12.25822000       0.38927900      -1.10234800      -2.41701800
Zr      -2.40033000       8.74971000      12.12393000      -1.33790500      -2.57940900      -2.65189100
Zr       3.03990000       6.88312000      13.27197000      -0.74238400       1.46032900       0.59862000
Zr      -0.09045000       0.54709000      23.23411000      -0.11780800       1.50080900      -0.80389200
Zr       6.08179000       2.41368000      22.08607000       0.13712900      -1.57764300       0.59248500
Zr       3.62047000       5.52864000      22.22036000      -0.45781300      -1.44997800       0.87509800
Zr      -1.92279000       3.50540000      23.09982000       0.52613500       1.51742000      -1.16117500
Zr      -5.73889000       8.67933000      11.14525000       3.55867600       0.50811100      -1.70017100
Zr      -0.19563000      10.70257000      10.26579000      -4.07454400      -3.28987200       1.45276900
Zr       2.26569000       7.58761000      10.13150000      -1.45039500      -1.36699900       3.88910400
Zr       1.20756000       9.84143000      13.13768000      -0.58118800       1.73001000       0.38334200
Zr      -8.20020000      11.79428000      11.27954000       1.20839000       5.53400600      -0.12572100
Zr       1.41577000       3.57578000      24.07850000       0.37794200      -1.31709200       1.21214400
Zr       3.24810000       0.61748000      24.21279000      -0.31377800      -1.14407100       1.26726000
Zr      -0.01474000       0.91843000      29.07711000       4.07430300       3.28972000      -1.45293200
Zr       5.52852000       2.94168000      28.19765000      -3.55868700      -0.50813100       1.70012300
Zr       3.69619000       5.89998000      28.06336000      -1.20839000      -5.53400600       0.12572100
Zr      -2.47605000       4.03339000      29.21140000       1.45042900       1.36697900      -3.88917700
Zr       5.02366000       4.66750000      25.09225000       0.02915800       1.10339800      -1.00654300
Zr       0.35763000       5.82960000      27.08468000      -0.38927900       1.10234800       2.41701800
Zr      10.19455000       1.77958000      26.20522000       0.58116500      -1.73011600      -0.38320600
Zr      -3.25026000       4.73788000      26.07093000       0.74246200      -1.46034000      -0.59863600
Zr       6.85599000       1.70919000      25.22654000      -1.01961900       1.45430200      -0.82836900
Zr       2.74324000       2.34330000      21.10739000       0.33242400       1.36568600      -0.75947600
Zr      -1.62613000       8.04522000      15.26440000      -0.37797100       1.31710300      -1.21211700
Zr       4.54611000       9.91181000      14.11636000       1.01969900      -1.45429200       0.82823000
Zr       6.00608000       2.04234000      16.24308000      -0.52613500      -1.51742000       1.16117500
Zr      -1.55042000       8.41656000      21.10739000       0.33242900       1.36568600      -0.75947600
Zr       3.99284000      10.43981000      20.22793000      -0.31273100      -1.37164300       0.81421500
Zr      -5.15831000       7.32485000      20.09364000       0.28633400      -1.52555000       0.54589500
Zr      -4.01173000      11.53152000      21.24168000      -0.20319000       1.54336600      -0.53986100
Zr       0.46282000       0.01910000      17.12253000       0.45781300       1.44997800      -0.87509800
Zr       3.11561000       7.25446000      19.11496000       0.31273100       1.37164300      -0.81421500
Zr      -2.95360000       9.27771000      18.23550000      -0.33242900      -1.36568600       0.75947600
Zr      -0.49228000       6.16275000      18.10121000       0.20319000      -1.54336600       0.53986100
Zr       0.65429000      10.36942000      19.24925000      -0.28633400       1.52555000      -0.54589500
Zr       4.94794000       4.29615000      19.24925000      -0.28633700       1.52555300      -0.54590100
Zr       3.80137000       0.08948000      18.10121000       0.20318800      -1.54336900       0.53985600
Zr       1.34005000       3.20444000      18.23550000      -0.33242400      -1.36568600       0.75947600
Zr       7.40926000       1.18120000      19.11496000       0.31272900       1.37164200      -0.81421400
Zr      -3.83084000       6.09236000      17.12253000       0.45779700       1.44998900      -0.87509700
Zr       1.71242000       8.11561000      16.24308000      -0.52611900      -1.51742500       1.16117700
Zr      -0.11991000      11.07391000      16.10879000       0.11779900      -1.50080900       0.80391000
Zr      -6.29215000       9.20732000      17.25682000      -0.13712800       1.57763900      -0.59250600
Zr       0.28192000       5.45825000      21.24168000      -0.20318800       1.54336900      -0.53985600
Zr      -0.86466000       1.25158000      20.09364000       0.28633700      -1.52555300       0.54590100
Zr       8.28650000       4.36654000      20.22793000      -0.31272900      -1.37164200       0.81421400
Zr      -3.45846000      11.00353000      15.13011000       0.31374200       1.14406600      -1.26727100
Zr       6.37845000       6.95351000      14.25065000      -0.02916100      -1.10340200       1.00642800
Zr      -1.99850000       3.13405000      17.25682000      -0.13712900       1.57764300      -0.59248500
Zr      -3.90645000       5.72102000      11.27954000       1.20648500       5.53417400      -0.12598500
240
Lattice="11.612468 0.0 0.0 -8.587304 12.14653 0.0 0.0 0.0 39.342896" Properties=species:S:1:pos:R:3:forces:R:3 energy=-2233.81357467 stress="199.8402 35.31079 27.08661 35.31079 187.39407 119.95007 27.08661 119.95007 171.22633" pbc="T T T"
O       -0.61425000       5.33036000      28.88529000      -1.09921300      -0.85110400      -0.28222700
O       -1.46363000       7.19810000      13.52784000       0.03259200      -0.34828700      -2.81796200
O        2.11803000       8.41883000      11.80332000      -0.92647600       2.66638700       5.65419800
O       -6.60898000      10.69600000      11.95200000      -0.19767200      -0.11842600      -0.99356500
O        2.87954000      10.99211000      13.38661000       1.16049000       1.26553900       0.46880800
O       -4.30423000       7.33222000      12.43243000       0.18184900       3.50796900       2.22073500
O        4.92128000       8.23167000      12.96969000       0.67114900      -1.53644300      -1.13269800
O       -3.56530000       7.36119000      15.25891000      -0.01797700      -0.37165000       0.67313500
O       -5.16000000      10.57917000      14.13923000       0.38136000       0.59675200      -0.86890300
O        5.48131000       8.33376000      15.46224000      -0.27343700       0.31607200      -0.46902400
O       -0.37122000       9.49156000      12.11285000      -2.94433600      -0.93285900      -1.66259700
O       -2.56336000       9.63943000      13.95203000       0.45714700      -1.16573000      -1.09774600
O        6.82663000       0.01299000      15.39309000       1.23689200       1.24811500       0.35802300
O        2.65809000       8.54721000      14.39528000      -0.36154800       1.41545900       0.67713000
O        0.27711000       9.41530000      14.93918000      -0.20482700      -1.53177700      -0.22252600
O        3.38772000       8.52637000      17.24650000       0.21437000      -0.38572700       0.72141200
O        1.80554000      11.75191000      16.11370000      -0.06273700       0.50632600      -0.81261200
O        0.82005000       9.49722000      17.45262000      -0.33084100       0.52177300      -0.57647900
O       -7.23392000      10.78104000      15.90840000       0.18906300      -0.35400900       0.89564000
O        0.03354000       6.96965000      15.98423000      -1.30868400      -1.15432100      -0.26048600
O       -2.14379000       7.23970000      17.38967000       1.13575700       1.13738900       0.30256200
O        0.39007000      11.86757000      13.97110000      -1.13006800      -1.19973000      -0.27267700
O       -2.00774000       9.71467000      16.42092000       0.06180100       1.50546600       0.90969800
O        1.16460000       6.22601000      13.27722000      -1.14068900      -0.58833300       0.06843500
O        0.40389000       6.29064000      10.45761000       1.09938000       0.85121200       0.28205000
O        9.28408000       3.20217000      27.53958000       0.92658200      -2.66668600      -5.65450900
O        1.25327000       4.42290000      25.81506000      -0.03261000       0.34842300       2.81813300
O        8.52256000       0.62889000      25.95628000      -1.16024900      -1.26558400      -0.46880700
O        6.39859000       0.92503000      27.39088000       0.19816400       0.11802500       0.99372900
O        6.48083000       3.38933000      26.37321000      -0.67107400       1.53650200       1.13254600
O        4.09387000       4.28879000      26.91047000      -0.18207700      -3.50767400      -2.22057400
O        7.42059000       3.41287000      29.25116000      -1.15217900      -0.92018000       1.29661400
O        9.92588000       0.54483000      28.12904000      -2.09580300       0.33376000       0.21618200
O        4.68051000       4.27478000      29.35033000      -1.66081300       1.49969000       1.09115500
O       -1.98130000       7.08044000      10.91713000      -1.39670000      -1.08919400       0.43963800
O       -3.44105000       5.62087000      27.98391000       1.08640100      -1.22415900       0.03928500
O        1.60619000       1.85482000      29.37214000       7.71377900       4.95824100       1.90279900
O        1.77093000       4.54056000      28.42577000       1.39663500       1.08945100      -0.43959100
O       -2.52271000      10.61383000      28.42577000       1.39670000       1.08919400      -0.43963800
O        1.47618000      11.07616000      11.21386000       2.09649400      -0.33361800      -0.21604300
O        3.98151000       8.20814000      10.09174000       1.15240500       0.92020900      -1.29659600