17
Lattice="18.027634 0.0 0.0 0.0 20.0 0.0 0.0 0.0 20.0" Properties=species:S:1:pos:R:3:forces:R:3 energy=-142.74057509 stress="14.321 18.37963 0.16518 18.37963 33.46207 9.78548 0.16518 9.78548 3.78647" pbc="T T T"
Zr       3.01920000      10.15159000       9.81928000       0.32641500      -0.00468300       0.03543400
Zr       9.08247000       9.38167000      10.20448000     -14.29074600     -26.47089400      -7.29960600
Zr      15.01989000      10.16047000       9.81312000       0.61040600      -0.00134900      -0.06974900
Zr       0.00534000      10.22371000       9.78185000       0.30382200      -0.01531000      -0.01178000
Zr       6.00995000       9.94690000       9.90856000       0.01862400      -0.55285800       0.27608700
Zr      12.02455000       9.93012000       9.93945000      -1.48574800      -0.03168700      -0.28641400
O        1.55225000      11.12259000       8.87535000      -0.16385600       0.01892400      -0.02206400
O       13.41370000      10.98177000       8.95491000      -0.30596100      -0.20694100      -0.01254900
O        1.48071000       9.26676000      10.73039000      -0.18107000      -0.00704000       0.01911200
O        7.28469000       8.86013000      10.88048000      -2.86908000       0.22150700       0.70233600
O       13.62496000       9.13351000      10.80184000      -0.32018800       0.02014700      -0.00782200
O        4.56479000      10.99778000      10.77291000      -0.17879700       0.15461200       0.01582600
O        9.78216000      10.61798000      10.51391000      15.94207400      27.47067600       7.72377000
O       16.51769000      11.13684000      10.71198000      -0.17396600      -0.00435800       0.02832900
O        4.49666000       9.14468000       8.91758000      -0.11281900      -0.05456800      -0.02626000
O       10.61268000       8.79385000       9.15230000       3.03171800      -0.54550900      -1.07413400
O       16.53837000       9.27928000       8.85452000      -0.15082700       0.00933100       0.00948400
17
Lattice="18.027634 0.0 0.0 0.0 20.0 0.0 0.0 0.0 20.0" Properties=species:S:1:pos:R:3:forces:R:3 energy=-139.4914552 stress="-8.16794 -4.15487 2.0646 -4.15487 -1.82583 -0.48121 2.0646 -0.48121 3.13628" pbc="T T T"
Zr       3.03469000      10.15139000       9.80512000      -1.61148700       0.27082300       0.06371500
Zr       8.36547000       8.10685000       9.66443000       4.97190500      -0.18834100      -2.22145400
Zr      15.04922000      10.16120000       9.79653000      -2.82709700      -0.08175900       0.18495900
Zr       0.02000000      10.22297000       9.78129000      -1.11469200       0.07472500       0.02541600
Zr       6.01203000       9.91722000       9.85913000      -2.62245800       2.92433300      -2.30903000
Zr      11.95420000       9.93384000       9.86364000      -0.07955300       3.40663600       1.17380700
O        1.53772000      11.12586000       8.86894000       0.65553800      -0.07112100       0.02905000
O       13.41222000      10.97824000       8.92020000       0.28151500      -0.66876800      -0.03587700
O        1.47565000       9.26734000      10.72544000       0.66233700      -0.02622900      -0.00915400
O        7.17880000       8.85769000      10.81065000       0.25936600      -1.51287800       3.71134000
O       13.59135000       9.13925000      10.76867000       0.07644800       0.21517900      -0.26667800
O        4.56820000      11.00044000      10.73783000       0.36433100      -0.13353200       0.02717600
O       10.20771000      11.94527000      10.55914000       1.27949700      -2.31729700      -0.44730200
O       16.50386000      11.13459000      10.70960000       0.82716600       0.07232900       0.03969700
O        4.47402000       9.13905000       8.88122000       0.59695100      -0.15122100       0.20010300
O       10.79116000       8.78381000       8.99680000      -2.57939900      -1.67393700      -0.01008200
O       16.53375000       9.27877000       8.85074000       0.85963200      -0.13894200      -0.15568600
17
Lattice="18.027634 0.0 0.0 0.0 20.0 0.0 0.0 0.0 20.0" Properties=species:S:1:pos:R:3:forces:R:3 energy=-138.61518378 stress="-16.88088 3.90443 2.06158 3.90443 -13.58703 -3.93735 2.06158 -3.93735 -6.43124" pbc="T T T"
Zr       2.95776000      10.16452000       9.80077000      -0.17689700      -0.35040400       0.20917800
Zr       8.52880000       7.80447000       9.43172000       0.90868200       3.72106400       2.02628500
Zr      14.91472000      10.15760000       9.79859000       3.45185200      -0.40762600       0.10504200
Zr      -0.03275000      10.22648000       9.78247000      -0.66982000      -0.08596200      -0.02911800
Zr       5.88395000      10.05350000       9.71866000       4.66430300      -1.91109700       1.58412800
Zr      11.94566000      10.09995000       9.88801000      -4.20778700       0.19514000      -0.65398500
O        1.56554000      11.12367000       8.86758000      -0.13583900       0.22110200      -0.19237100
O       13.43081000      10.94842000       8.90182000      -0.90535900       0.64979400      -0.80401000
O        1.50871000       9.26648000      10.72225000      -0.08279500      -0.04063500       0.08072900
O        7.18576000       8.77860000      10.94503000       0.49288300      -0.38311400      -4.13777300
O       13.58430000       9.15193000      10.73942000      -1.12527600       0.32394000       0.41164900
O        4.59114000      10.99275000      10.72161000      -0.77396100       0.49454400       0.15082900
O       10.17408000      12.13600000      10.41247000       2.21785100      -2.70508000      -0.40765800
O       16.54061000      11.13712000      10.70988000      -0.65261200      -0.18227400      -0.16371200
O        4.49454000       9.12983000       8.87394000      -1.03953100      -0.05838100      -0.33595700
O       10.70389000       8.70778000       8.93908000      -1.29604600       0.29384200       1.86946800
O       16.57618000       9.27160000       8.84112000      -0.66964800       0.22514700       0.28727700
17
Lattice="18.027634 0.0 0.0 0.0 20.0 0.0 0.0 0.0 20.0" Properties=species:S:1:pos:R:3:forces:R:3 energy=-139.4138694 stress="-27.58996 3.20559 2.12078 3.20559 -15.69412 -2.92958 2.12078 -2.92958 -6.63298" pbc="T T T"
Zr       2.95029000      10.15608000       9.80280000       1.41987600      -0.02565200      -0.06647800
Zr       8.53316000       7.73904000       9.42512000       1.09504000       3.67545900       1.54316600
Zr      15.00100000      10.14718000       9.79836000      -2.57130300      -0.17984500      -0.05228400
Zr      -0.05186000      10.22437000       9.78174000       1.40637600       0.06060700      -0.02465300
Zr       6.00401000      10.00680000       9.74222000      -0.17468300      -1.19189300       0.86518600
Zr      11.83080000      10.11199000       9.85739000      -0.43864300       1.04501800      -0.63205800
O        1.56148000      11.12984000       8.86133000      -0.68803900       0.02195900      -0.00688800
O       13.41097000      10.96533000       8.87229000      -0.32804000      -0.49277600       0.37299400
O        1.50832000       9.26557000      10.72303000      -0.83387000      -0.10613600       0.14428400
O        7.19508000       8.76302000      10.82131000       0.66819000      -0.79033400      -2.93010600
O       13.55120000       9.16101000      10.74206000      -0.66620300       0.97055700      -0.29567700
O        4.57341000      11.00453000      10.71762000       0.64472300      -0.46442800      -0.58326700
O       10.17866000      12.22868000      10.33619000       1.89863700      -2.87940300      -0.36110100
O       16.52344000      11.13194000      10.70482000      -0.25050800       0.10109400       0.14879500
O        4.46328000       9.12629000       8.85718000       0.74827900       0.63088200       0.52892600
O       10.68468000       8.71534000       8.96109000      -1.70259600      -0.15410200       1.46315300
O       16.56069000       9.27702000       8.84732000      -0.22723500      -0.22100900      -0.11399300
17
Lattice="18.027634 0.0 0.0 0.0 20.0 0.0 0.0 0.0 20.0" Properties=species:S:1:pos:R:3:forces:R:3 energy=-139.68591758 stress="-27.51006 2.43011 2.20593 2.43011 -15.16505 -3.6481 2.20593 -3.6481 -4.74781" pbc="T T T"
Zr       2.98228000      10.15502000       9.79876000      -0.21647300       0.02245400      -0.00063200
Zr       8.54599000       7.69192000       9.41884000       1.25347100       3.71313800       1.27489500
Zr      14.94450000      10.14209000       9.79485000       0.37590500      -0.02827000      -0.05685900
Zr      -0.02100000      10.22568000       9.78111000      -0.80681000       0.00887000      -0.00087600
Zr       6.00722000       9.97758000       9.75084000       0.18755300      -0.55633700       0.28713100
Zr      11.80978000      10.14292000       9.83068000      -0.63744000       0.87919400      -0.48588300
O        1.54413000      11.13128000       8.85964000       0.24837600      -0.10574400       0.10091000
O       13.40395000      10.95489000       8.87235000      -0.89308600      -0.05542500      -0.14746200
O        1.48954000       9.26309000      10.72557000       0.18101100       0.06670200      -0.04536500
O        7.20942000       8.73834000      10.72985000       0.94903700      -1.21451500      -2.14584100
O       13.52953000       9.18520000      10.72889000      -1.28898200       0.58638800       0.09126400
O        4.58949000      10.99327000      10.69757000       0.52193000      -0.22019300      -0.19113200
O       10.18023000      12.29844000      10.27098000       1.87199000      -2.93601400      -0.30870700
O       16.51593000      11.13367000      10.70742000      -0.30193800      -0.25456000      -0.19359800
O        4.47572000       9.13962000       8.86270000       0.51346100       0.17337600       0.18511000
O       10.65420000       8.71186000       8.97660000      -1.68627600      -0.16978300       1.41391500
O       16.55544000       9.27192000       8.84416000      -0.27173000       0.09071900       0.22313300
17
Lattice="18.027634 0.0 0.0 0.0 20.0 0.0 0.0 0.0 20.0" Properties=species:S:1:pos:R:3:forces:R:3 energy=-139.99642735 stress="-25.99959 1.76108 1.99836 1.76108 -14.49305 -2.36147 1.99836 -2.36147 -2.13758" pbc="T T T"
Zr       2.98110000      10.15717000       9.79240000      -0.07100800      -0.01925200       0.09928900
Zr       8.58972000       7.62551000       9.40690000       1.50311200       3.73820300       0.90376700
Zr      14.92820000      10.14036000       9.78661000      -0.50354000      -0.14258400       0.09006600
Zr      -0.04862000      10.22699000       9.78099000       0.28374400      -0.06523400       0.00364400
Zr       5.99877000       9.94947000       9.74138000       0.98330100      -0.12649200       0.03065700
Zr      11.78379000      10.20160000       9.78390000      -1.26104100       0.56131900      -0.11745700
O        1.54982000      11.12631000       8.86320000      -0.03285900      -0.06207900       0.06591500
O       13.36442000      10.94589000       8.85771000      -0.11126300       0.23352700      -0.52447600
O        1.49394000       9.26595000      10.72227000      -0.02835400       0.13916200      -0.11078600
O        7.25317000       8.66604000      10.58626000       1.15250400      -1.34463500      -1.44791400
O       13.45735000       9.22183000      10.71686000      -0.69566600       0.72880500       0.00305500
O        4.62763000      10.97439000      10.67136000      -0.06956100       0.10540300       0.21244000
O       10.18810000      12.41109000      10.15121000       1.88339400      -3.04419700      -0.21826900
O       16.50012000      11.12191000      10.69849000      -0.51382500      -0.05999000      -0.02462800
O        4.50513000       9.15093000       8.86611000      -0.33698500      -0.29234800      -0.33646800
O       10.58733000       8.70288000       9.01224000      -1.74081200      -0.27619100       1.30457900
O       16.54452000       9.27341000       8.85155000      -0.44114000      -0.07341500       0.06658600
17
Lattice="18.027634 0.0 0.0 0.0 20.0 0.0 0.0 0.0 20.0" Properties=species:S:1:pos:R:3:forces:R:3 energy=-140.51077206 stress="-29.5301 1.56679 1.03577 1.56679 -15.53742 -1.94305 1.03577 -1.94305 -1.40644" pbc="T T T"
Zr       2.97342000      10.15781000       9.79045000       0.95870400      -0.05942700       0.01644800
Zr       8.66818000       7.57517000       9.39260000       1.85371300       3.24331100       0.28988700
Zr      14.89913000      10.13378000       9.78302000      -0.85555400       0.06690400      -0.07151100
Zr      -0.05612000      10.22491000       9.78120000      -0.10314400      -0.03712200      -0.02704800
Zr       6.03439000       9.93436000       9.71873000      -0.39611300      -0.32705000      -0.03804700
Zr      11.71603000      10.26044000       9.74340000      -0.50150700       0.94477200      -0.19105900
O        1.55291000      11.12070000       8.86738000      -0.32550200       0.06852900      -0.05012800
O       13.34075000      10.95163000       8.81779000      -0.21147400       0.07148700      -0.31858200
O        1.49860000       9.27434000      10.71381000      -0.32161500      -0.03796700       0.07828700
O        7.32255000       8.56288000      10.43415000       0.72341600      -0.64314000      -0.81221600
O       13.38347000       9.27267000      10.70311000      -0.71916000       0.67893500       0.08035300
O        4.64796000      10.96684000      10.66112000       0.18560500      -0.15144800      -0.03603900
O       10.20933000      12.52074000      10.01259000       1.88778700      -3.36868200      -0.10537800
O       16.46841000      11.11177000      10.69119000      -0.29551000      -0.06452900      -0.02942800
O        4.50269000       9.14090000       8.84565000       0.12804900       0.11507000      -0.00004400
O       10.49421000       8.68729000       9.06276000      -1.76006200      -0.39940600       1.12995100
O       16.52084000       9.27116000       8.85789000      -0.24763300      -0.10023700       0.08455600
17
Lattice="18.027634 0.0 0.0 0.0 20.0 0.0 0.0 0.0 20.0" Properties=species:S:1:pos:R:3:forces:R:3 energy=-141.00553366 stress="-30.0158 3.14294 0.25126 3.14294 -16.22771 -0.86594 0.25126 -0.86594 -1.02484" pbc="T T T"
Zr       3.00821000      10.15534000       9.78825000      -0.80676700       0.04632700      -0.00280300
Zr       8.76417000       7.54620000       9.36860000       1.30589000       2.42893000       0.07833500
Zr      14.85228000      10.13320000       9.77643000       0.11125500       0.15096400      -0.11035200
Zr      -0.06088000      10.22280000       9.78024000      -0.39586900      -0.03361100      -0.01611700
Zr       6.03526000       9.91553000       9.69804000       0.23728300      -0.67764500       0.16498800
Zr      11.66791000      10.32222000       9.71135000      -0.21029100       1.34568200      -0.23582300
O        1.54027000      11.12132000       8.86635000       0.20651200      -0.15746300       0.15549800
O       13.32501000      10.95593000       8.78374000      -0.55019300       0.12360800      -0.29827200
O        1.48779000       9.27628000      10.71269000       0.20429100       0.10846500      -0.08937600
O        7.37290000       8.49457000      10.32595000       0.12039900       0.07613500      -0.55940300
O       13.32328000       9.31946000      10.69460000      -0.94366300       0.60727300       0.19406600
O        4.66569000      10.95578000      10.65079000       0.27938100      -0.05926700       0.01043800
O       10.24072000      12.57405000       9.90407000       2.03842800      -3.75770300      -0.01411700
O       16.44292000      11.10503000      10.68676000      -0.35995500      -0.11784500      -0.11181400
O        4.50462000       9.14027000       8.83295000       0.12772200      -0.01842600      -0.13573800
O       10.40422000       8.66786000       9.10969000      -1.02075300      -0.01913000       0.82944500
O       16.50215000       9.26598000       8.86268000      -0.34367000      -0.04629400       0.14104700
17
Lattice="18.027634 0.0 0.0 0.0 20.0 0.0 0.0 0.0 20.0" Properties=species:S:1:pos:R:3:forces:R:3 energy=-141.40856027 stress="-29.78852 4.93878 0.31488 4.93878 -16.2655 -0.99933 0.31488 -0.99933 -0.79871" pbc="T T T"
Zr       2.99051000      10.15585000       9.78591000       0.30395900       0.02356100       0.02072900
Zr       8.83137000       7.51591000       9.34286000       0.29977500       2.08459200       0.32102500
Zr      14.84233000      10.13760000       9.76874000      -0.78591100       0.02981700       0.01505300
Zr      -0.07673000      10.22134000       9.77945000      -0.18592300      -0.06016600       0.00960300
Zr       6.04358000       9.88750000       9.68960000       0.04383900      -0.43524200       0.12832700
Zr      11.64677000      10.38807000       9.68759000      -0.58136900       1.66425000      -0.11547500
O        1.54379000      11.11612000       8.87093000      -0.16894300      -0.01881700       0.02193500
O       13.30174000      10.95994000       8.76010000      -0.10102700       0.18511200      -0.31883400
O        1.49223000       9.28047000      10.70880000      -0.17243300       0.01388600       0.00749900
O        7.38671000       8.47526000      10.26294000       0.32784300      -0.11597800      -0.55588700
O       13.27075000       9.35320000      10.69414000      -0.42131200       0.81491600       0.02140700
O        4.68322000      10.94822000      10.64388000       0.07405900      -0.19443700      -0.05521900
O       10.27949000      12.57111000       9.83428000       2.29092800      -4.15684400       0.04852500
O       16.42301000      11.09850000      10.68100000      -0.24365200      -0.02850800      -0.07155600
O        4.50954000       9.13935000       8.82225000      -0.13816900      -0.06149500      -0.11779500
O       10.35583000       8.66331000       9.13851000      -0.30703900       0.34115400       0.55743800
O       16.48617000       9.26299000       8.86832000      -0.23462400      -0.08580100       0.08322600
17
Lattice="18.027634 0.0 0.0 0.0 20.0 0.0 0.0 0.0 20.0" Properties=species:S:1:pos:R:3:forces:R:3 energy=-141.68243962 stress="-30.79548 4.55218 0.35227 4.55218 -17.10102 -1.09182 0.35227 -1.09182 -0.64699" pbc="T T T"
Zr       2.99467000      10.15653000       9.78570000      -0.09183600      -0.00298200      -0.00290900
Zr       8.82940000       7.49610000       9.33879000       0.76452700       2.50261700       0.27089000
Zr      14.82378000      10.13748000       9.76854000      -0.43333200       0.07641700      -0.05962500
Zr      -0.08185000      10.22000000       9.77993000      -0.30443900      -0.06178500      -0.01024700
Zr       6.04541000       9.88065000       9.68650000      -0.12153100      -0.42497000       0.03956500
Zr      11.63382000      10.42798000       9.68261000      -0.84637200       1.81558700      -0.19665900
O        1.54126000      11.11515000       8.87164000      -0.05933100      -0.03297300       0.03884300
O       13.30099000      10.96397000       8.75015000      -0.14191800       0.26147000      -0.34351000
O        1.48977000       9.28123000      10.70808000      -0.04364600       0.02504300      -0.00278000
O        7.39139000       8.47049000      10.24556000       0.32779400      -0.19162300      -0.50878100
O       13.26141000       9.37173000      10.69141000      -0.46555500       0.74522600       0.16598600
O        4.68579000      10.94237000      10.64098000       0.18638700      -0.17137600      -0.02617500
O       10.30703000      12.54265000       9.81353000       2.46358400      -4.41151800       0.06990300
O       16.41733000      11.09751000      10.67872000      -0.25328500      -0.02479400      -0.05877700
O        4.50474000       9.13605000       8.81701000       0.00992100      -0.02944700      -0.06494100
O       10.36226000       8.67463000       9.14107000      -0.74755600       0.01104900       0.58961000
O       16.48165000       9.26118000       8.86983000      -0.24341200      -0.08594300       0.09960600
17
Lattice="18.027634 0.0 0.0 0.0 20.0 0.0 0.0 0.0 20.0" Properties=species:S:1:pos:R:3:forces:R:3 energy=-141.02134038 stress="-29.09265 3.29627 0.02969 3.29627 -15.14117 -1.28187 0.02969 -1.28187 -0.61123" pbc="T T T"
Zr       3.00483000      10.15778000       9.78831000      -0.14176700      -0.01143800      -0.01642500
Zr       8.79151000       7.54075000       9.35972000       0.94706900       2.26889300       0.15982100
Zr      14.84737000      10.13490000       9.77563000       0.15413300       0.07921700      -0.08881600
Zr      -0.06179000      10.22344000       9.78039000      -0.29602100      -0.08244000      -0.02838600
Zr       6.05133000       9.89936000       9.70306000      -0.29308300      -0.39792600      -0.00011100
Zr      11.68983000      10.31721000       9.70503000      -0.79789400       1.24857300      -0.04669200
O        1.54251000      11.11766000       8.86961000      -0.01138700      -0.05031200       0.06566400
O       13.30688000      10.94896000       8.77983000      -0.06751500       0.24131300      -0.50614000
O        1.48934000       9.27913000      10.71003000      -0.00429700       0.05743400      -0.02435600
O        7.37720000       8.49317000      10.29880000       0.30146700      -0.14202200      -0.44230300
O       13.29297000       9.32842000      10.68935000      -0.66581400       0.59281600       0.20544100
O        4.67026000      10.95611000      10.64807000       0.25421900      -0.16124600      -0.02308400
O       10.23652000      12.59540000       9.88123000       1.97623000      -3.59780900       0.03363700
O       16.43426000      11.10024000      10.68365000      -0.41439300      -0.06958300      -0.08375500
O        4.50614000       9.14083000       8.82742000       0.14475500       0.03528200      -0.01948400
O       10.38492000       8.67311000       9.13034000      -0.69289600       0.01999600       0.66672400
O       16.49456000       9.26616000       8.86493000      -0.39280700      -0.03074600       0.14826300
17
Lattice="18.027634 0.0 0.0 0.0 20.0 0.0 0.0 0.0 20.0" Properties=species:S:1:pos:R:3:forces:R:3 energy=-140.33848488 stress="-25.71761 1.73472 0.15409 1.73472 -11.55258 -0.68887 0.15409 -0.68887 -0.47235" pbc="T T T"
Zr       3.01911000      10.15990000       9.79115000       0.00904100      -0.01500200      -0.01213600
Zr       8.75392000       7.60357000       9.38422000       1.05184600       1.92712300       0.07694800
Zr      14.90828000      10.13155000       9.78414000      -0.79264600       0.12956400      -0.18161400
Zr      -0.03778000      10.22587000       9.78017000       0.01014600      -0.04531100      -0.02192900
Zr       6.05382000       9.91926000       9.72486000      -0.21209700      -0.30335400       0.01122800
Zr      11.76027000      10.15221000       9.74236000      -0.32216600       1.22232600      -0.14642200
O        1.54545000      11.11930000       8.86913000      -0.11115700      -0.04751400       0.06734600
O       13.31646000      10.92953000       8.80306000       0.17198700      -0.10475300      -0.27863100
O        1.48966000       9.27930000      10.71064000      -0.10744900       0.06067400      -0.02549200
O        7.36359000       8.52225000      10.36003000       0.29182400      -0.12389700      -0.36055100
O       13.31252000       9.27259000      10.68755000      -0.28987000       0.29979400       0.26363700
O        4.65473000      10.97266000      10.65636000       0.18153300      -0.09713800       0.00860100
O       10.13757000      12.67595000       9.96398000       1.29956700      -2.57071900       0.04059400
O       16.44178000      11.09974000      10.68695000      -0.25499400       0.00421900      -0.00790500
O        4.51368000       9.14964000       8.84150000       0.06396700       0.02476000      -0.08058100
O       10.41598000       8.67948000       9.12977000      -0.75266600      -0.24483500       0.59499600
O       16.49744000       9.27594000       8.86327000      -0.23686700      -0.11593700       0.05191000
17
Lattice="18.027634 0.0 0.0 0.0 20.0 0.0 0.0 0.0 20.0" Properties=species:S:1:pos:R:3:forces:R:3 energy=-139.58917249 stress="-16.95564 0.31156 1.78257 0.31156 -6.28516 -0.71365 1.78257 -0.71365 0.61603" pbc="T T T"
Zr       3.04525000      10.16249000       9.79414000      -0.09859400       0.02019700       0.02961900
Zr       8.74607000       7.70112000       9.40704000       0.52965900       1.20697600       0.12744100
Zr      14.95711000      10.13247000       9.78678000      -0.73363100       0.03659900      -0.06333000
Zr       0.00706000      10.22832000       9.77885000      -0.77227600       0.00138000       0.01505700
Zr       6.05561000       9.93502000       9.75564000       0.08704800      -0.13205500       0.06884200
Zr      11.86681000       9.94031000       9.78876000      -1.00960400       2.46162800      -0.89241000
O        1.54317000      11.11934000       8.87154000       0.09672600       0.04250700      -0.02807400
O       13.34095000      10.88744000       8.82525000       0.10910100      -0.35997200      -0.05342100
O        1.48389000       9.28312000      10.70940000       0.09897900      -0.03777300       0.05779000
O        7.35179000       8.56261000      10.42740000       0.34732400      -0.11429000      -0.31504000
O       13.32754000       9.19416000      10.69262000       1.18172700      -0.69113100       1.00983900
O        4.63886000      10.99463000      10.66749000       0.09494400      -0.03102700       0.04118700
O        9.99486000      12.79677000      10.06370000       0.68695800      -1.62007800       0.04019900
O       16.44103000      11.09900000      10.69209000       0.08990600       0.05224000      -0.02411300
O        4.52600000       9.16400000       8.85563000      -0.06530900      -0.07577500      -0.21026300
O       10.43699000       8.67793000       9.14944000      -0.74854400      -0.61962800       0.24841300
O       16.49132000       9.28523000       8.86163000       0.10558700      -0.13979700      -0.05173700
17
Lattice="18.027634 0.0 0.0 0.0 20.0 0.0 0.0 0.0 20.0" Properties=species:S:1:pos:R:3:forces:R:3 energy=-139.3029592 stress="-14.60875 -0.34829 2.10211 -0.34829 -5.22686 -0.51344 2.10211 -0.51344 0.70512" pbc="T T T"
Zr       3.05354000      10.16401000       9.79656000      -0.31027300       0.01996100       0.01910900
Zr       8.72072000       7.74639000       9.42416000       0.71507300       1.07093500       0.03549000
Zr      14.97942000      10.13097000       9.79177000      -0.78737300      -0.06509400       0.03077100
Zr       0.01683000      10.23107000       9.77914000      -0.63853700      -0.01250400       0.00761900
Zr       6.06035000       9.94929000       9.77200000      -0.02849100      -0.12173800       0.04012600
Zr      11.90943000       9.85797000       9.80118000      -1.12092200       2.67195000      -0.92228900
O        1.54581000      11.12170000       8.87000000       0.14372400       0.02874600      -0.00778500
O       13.34931000      10.86751000       8.84820000       0.09459100      -0.38940200      -0.04162500
O        1.48491000       9.28159000      10.71133000       0.13741500      -0.00453400       0.03073900
O        7.34156000       8.58556000      10.47304000       0.26131300      -0.06145500      -0.24133800
O       13.36631000       9.14266000      10.70373000       1.53172900      -0.81616000       1.04289800
O        4.62691000      11.00698000      10.67425000       0.20542500      -0.02835400       0.04651000
O        9.92670000      12.84534000      10.12434000       0.51252900      -1.36024900       0.01306100
O       16.45388000      11.10118000      10.69570000       0.09212400       0.08040600       0.00278600
O        4.52851000       9.16873000       8.86292000       0.09064800      -0.03736400      -0.17067400
O       10.45219000       8.67111000       9.14445000      -1.01449200      -0.83092700       0.18687700
O       16.50075000       9.28911000       8.85754000       0.11551900      -0.14422000      -0.07227300
17
Lattice="18.027634 0.0 0.0 0.0 20.0 0.0 0.0 0.0 20.0" Properties=species:S:1:pos:R:3:forces:R:3 energy=-139.40690005 stress="-16.05466 0.03411 1.59411 0.03411 -6.03419 -0.30137 1.59411 -0.30137 0.28712" pbc="T T T"
Zr       3.05904000      10.16305000       9.79637000      -0.84894000       0.03693800       0.01346300
Zr       8.71864000       7.73961000       9.42353000       0.69792300       1.08034200       0.03527900
Zr      14.96753000      10.12991000       9.79249000      -0.29330700      -0.06332500       0.04116000
Zr       0.01377000      10.23111000       9.77929000      -0.62266900      -0.01847100       0.00226900
Zr       6.05396000       9.95258000       9.76755000       0.26335400      -0.26170800       0.11128300
Zr      11.89590000       9.88059000       9.79592000      -0.74501400       2.24221200      -0.64365700
O        1.54355000      11.12359000       8.86798000       0.27311600      -0.04351300       0.06011600
O       13.35035000      10.87131000       8.84960000      -0.05216000      -0.32258400      -0.12015700
O        1.48308000       9.27961000      10.71302000       0.26614500       0.05330100      -0.02758200
O        7.34319000       8.58019000      10.47254000       0.19072600       0.04490900      -0.30979700
O       13.37665000       9.14637000      10.70460000       0.92448200      -0.54118700       0.75238900
O        4.62735000      11.00466000      10.67332000       0.24631400       0.03752400       0.09327700
O        9.93830000      12.83408000      10.11941000       0.56103500      -1.43315000       0.00907000
O       16.45817000      11.10287000      10.69657000      -0.06214100       0.00795500      -0.04750400
O        4.52770000       9.16813000       8.86344000       0.10360900      -0.08265800      -0.23513400
O       10.44834000       8.66624000       9.13831000      -0.85436000      -0.64822800       0.26510900