17
Lattice="18.027634 0.0 0.0 0.0 20.0 0.0 0.0 0.0 20.0" Properties=species:S:1:pos:R:3:forces:R:3 energy=-130.27568415 stress="13.97994 -0.06762 -7.52166 -0.06762 107.88278 -0.00171 -7.52166 -0.00171 0.84521" pbc="T T T"
Zr       3.01864000      10.15165000       9.78409000      -0.02151600      -0.00384800       0.07037800
Zr       9.02133000       9.38657000       9.78780000       0.05850900     -85.99239600       0.00434300
Zr      15.01962000      10.16224000       9.78379000       0.03167300      -0.00656900      -0.06966100
Zr       0.00534000      10.22371000       9.78185000      -0.00261200      -0.02728700       0.00024100
Zr       6.01258000       9.94023000       9.76941000      -0.70107500      -0.85490700       0.51752100
Zr      12.02750000       9.94177000       9.80197000       0.69128300      -0.84910100      -0.51247900
O        1.53756000      11.12782000       8.86350000      -0.01429800       0.01506200      -0.02734100
O       13.44315000      10.99607000       8.87927000      -0.08896300       0.21937800       0.04414200
O        1.48885000       9.26879000      10.71736000      -0.03389900       0.00173700       0.01940300
O        7.35681000       8.83103000      10.65048000      -4.20228700      -0.11631000       0.82705100
O       13.58468000       9.14409000      10.72912000      -0.21251300      -0.09463200      -0.12143700
O        4.59148000      10.98715000      10.69344000       0.08934600       0.21340600      -0.05237700
O        9.02036000      10.62249000       9.78792000      -0.06202600      87.66983900       0.00321100
O       16.50564000      11.13232000      10.70367000       0.01428300       0.01418600       0.02704800
O        4.45852000       9.13804000       8.83977000       0.22103400      -0.08313700       0.12848900
O       10.68413000       8.82994000       8.92238000       4.19262700      -0.11075600      -0.84132900
O       16.54425000       9.27714000       8.84512000       0.04043500       0.00533500      -0.01720300
17
Lattice="18.027634 0.0 0.0 0.0 20.0 0.0 0.0 0.0 20.0" Properties=species:S:1:pos:R:3:forces:R:3 energy=-131.15694946 stress="0.01631 -0.00135 -1.29211 -0.00135 -3.38189 0.04796 -1.29211 0.04796 0.02825" pbc="T T T"
Zr       3.01760000      10.15146000       9.78750000      -0.19469300       0.16701000       0.00534400
Zr       9.02416000       5.23807000       9.78809000       0.00487900       0.43017400      -0.00554000
Zr      15.02115000      10.16192000       9.78043000       0.18781500       0.16671100      -0.00812900
Zr       0.00521000      10.22239000       9.78187000       0.01868000       0.05181700       0.00200800
Zr       5.97876000       9.89899000       9.79441000       2.65446400       0.47715400      -0.02829500
Zr      12.06085000       9.90080000       9.77728000      -2.64925600       0.46100000       0.02690300
O        1.53687000      11.12854000       8.86218000       0.07333800      -0.06405900       0.03769000
O       13.43885000      11.00665000       8.88141000       0.59978600      -0.25987200      -0.34631500
O        1.48722000       9.26888000      10.71830000       0.01122200      -0.00532000       0.00693900
O        7.15407000       8.82543000      10.69043000      -0.92134900       0.12133600      -0.21592500
O       13.57443000       9.13952000      10.72327000       0.93078500      -0.60225700       0.18105100
O        4.59578000      10.99745000      10.69092000      -0.61046400      -0.25002900       0.35142600
O        9.01751000      14.85191000       9.78821000       0.00017500      -0.14261800      -0.00086100
O       16.50633000      11.13301000      10.70498000      -0.07966400      -0.06275700      -0.03748900
O        4.46919000       9.13403000       8.84599000      -0.93837200      -0.61120200      -0.18726900
O       10.88638000       8.82459000       8.88184000       0.92534000       0.12886100       0.23059500
O       16.54620000       9.27740000       8.84429000      -0.01268700      -0.00595000      -0.01213300
17
Lattice="18.027634 0.0 0.0 0.0 20.0 0.0 0.0 0.0 20.0" Properties=species:S:1:pos:R:3:forces:R:3 energy=-131.0037648 stress="-7.89665 0.02683 1.85085 0.02683 -0.51608 -0.02099 1.85085 -0.02099 1.31906" pbc="T T T"
Zr       3.00816000      10.15957000       9.78776000       1.02683300      -0.36584900      -0.05577700
Zr       9.02404000       5.25895000       9.78776000      -0.00002100       0.28129400       0.00069000
Zr      15.03028000      10.17001000       9.78005000      -1.00660700      -0.36732000       0.05644800
Zr       0.00613000      10.22491000       9.78196000      -0.03910100      -0.06709500      -0.00023200
Zr       6.10762000       9.92215000       9.79307000      -3.61883800       2.08782500      -1.98700300
Zr      11.93219000       9.92319000       9.77862000       3.61432400       2.11486300       2.00493700
O        1.54044000      11.12543000       8.86401000      -0.25554100       0.17888500      -0.15173200
O       13.46796000      10.99402000       8.86462000      -0.90624400      -0.57575600       0.05156200
O        1.48776000       9.26862000      10.71864000      -0.23388100      -0.03427100       0.07281200
O        7.10931000       8.83134000      10.68001000       1.17664700      -1.71021400       1.43292900
O       13.61963000       9.11028000      10.73208000      -1.01338100       0.39257400      -0.66292400
O        4.56613000      10.98532000      10.70801000       0.91223000      -0.57896200      -0.06083900
O        9.01816000      14.84499000       9.78859000      -0.00121400      -0.17792900      -0.00113900
O       16.50246000      11.12996000      10.70316000       0.26728200       0.17321500       0.14702700
O        4.42364000       9.10435000       8.83692000       1.01417000       0.39864100       0.66504200
O       10.93129000       8.83082000       8.89310000      -1.18428600      -1.72474500      -1.44346100
O       16.54558000       9.27711000       8.84370000       0.24762700      -0.02515500      -0.06833900
17
Lattice="18.027634 0.0 0.0 0.0 20.0 0.0 0.0 0.0 20.0" Properties=species:S:1:pos:R:3:forces:R:3 energy=-131.12002081 stress="-7.60328 -0.01336 -4.7711 -0.01336 -8.86838 -0.03235 -4.7711 -0.03235 -3.52757" pbc="T T T"
Zr       3.03491000      10.15008000       9.78631000      -1.20728000      -0.11521500       0.11604800
Zr       9.02392000       5.26651000       9.78768000       0.00170100       0.46778800      -0.00117500
Zr      15.00400000      10.16048000       9.78152000       1.18827300      -0.11755800      -0.12068800
Zr       0.00510000      10.22318000       9.78196000       0.02848400       0.05205000       0.00158500
Zr       6.01415000       9.97700000       9.74107000       2.22659400      -1.83129900       1.22155600
Zr      12.02550000       9.97875000       9.83110000      -2.24185400      -1.84074400      -1.21951600
O        1.53379000      11.13008000       8.86006000       0.30033400      -0.12605700       0.10101000
O       13.44452000      10.97883000       8.86582000      -0.20072900      -0.08621500      -0.13738800
O        1.48165000       9.26772000      10.72055000       0.27918900       0.09055100      -0.10657700
O        7.13965000       8.78665000      10.71744000      -2.07509100       1.83312500      -1.56337900
O       13.59355000       9.12027000      10.71483000      -0.30287800       0.06569100      -0.05199800
O        4.58971000      10.97006000      10.70659000       0.20910200      -0.08429200       0.13765000
O        9.01842000      14.84026000       9.78871000      -0.00065100      -0.17999100      -0.00062900
O       16.50942000      11.13447000      10.70699000      -0.31064300      -0.12331300      -0.09533500
O        4.44974000       9.11449000       8.85424000       0.31220700       0.06598600       0.05076100
O       10.90071000       8.78574000       8.85547000       2.07851500       1.84181300       1.56698500
O       16.55206000       9.27645000       8.84191000      -0.28527300       0.08767900       0.10109100
17
Lattice="18.027634 0.0 0.0 0.0 20.0 0.0 0.0 0.0 20.0" Properties=species:S:1:pos:R:3:forces:R:3 energy=-131.47549702 stress="-5.66953 -0.00492 0.11053 -0.00492 -1.95379 0.00749 0.11053 0.00749 0.60925" pbc="T T T"
Zr       3.00802000      10.14678000       9.78897000       1.07608500      -0.05196200       0.05192700
Zr       9.02384000       5.27812000       9.78756000       0.00048700       0.35223600       0.00034100
Zr      15.03046000      10.15711000       9.77876000      -1.06695800      -0.05370500      -0.05138800
Zr       0.00570000      10.22431000       9.78200000      -0.01309700       0.06357400       0.00021500
Zr       6.06125000       9.93722000       9.76667000      -1.01454000       1.00531700      -0.86730400
Zr      11.97798000       9.93881000       9.80559000       1.01210500       1.00403400       0.86629900
O        1.54049000      11.12738000       8.86220000      -0.13314900       0.01227600      -0.02445400
O       13.43837000      10.97578000       8.86259000      -0.03770700      -0.35246100      -0.00498200
O        1.48787000       9.26980000      10.71815000      -0.21612100      -0.08998200       0.08579100
O        7.09234000       8.82720000      10.68283000       0.21754400      -0.68232700       0.52960900
O       13.58487000       9.12237000      10.71253000      -0.11767500       0.02742300      -0.18470400
O        4.59606000      10.96707000      10.70981000       0.02855000      -0.35062000       0.00200200
O        9.01870000      14.83568000       9.78884000      -0.00129500      -0.16918100      -0.00063500
O       16.50251000      11.13183000      10.70497000       0.13691800       0.01084900       0.02337800
O        4.45864000       9.11661000       8.85651000       0.11426600       0.03256700       0.18180400
O       10.94806000       8.82646000       8.89021000      -0.20978300      -0.67197100      -0.52163900
O       16.54573000       9.27848000       8.84419000       0.22437300      -0.08606800      -0.08626200
17
Lattice="18.027634 0.0 0.0 0.0 20.0 0.0 0.0 0.0 20.0" Properties=species:S:1:pos:R:3:forces:R:3 energy=-131.52601762 stress="-5.9929 0.01464 -1.42175 0.01464 -4.36783 0.00116 -1.42175 0.00116 -0.84863" pbc="T T T"
Zr       3.04786000      10.14486000       9.79262000      -1.41278100      -0.13415000       0.05795200
Zr       9.02367000       5.29790000       9.78741000       0.00030200       0.38875200       0.00063700
Zr      14.99080000      10.15509000       9.77511000       1.39770400      -0.13174400      -0.06423400
Zr       0.00542000      10.22810000       9.78202000       0.00590500      -0.05816200       0.00166000
Zr       6.04278000       9.96477000       9.74101000       0.71131300      -0.32552900       0.17958300
Zr      11.99614000       9.96619000       9.83115000      -0.69554300      -0.30550500      -0.15657800
O        1.53721000      11.12632000       8.86237000       0.39548500      -0.09476100       0.10036800
O       13.43875000      10.96003000       8.86106000      -0.36036000       0.02641300      -0.24852100
O        1.48025000       9.26618000      10.72130000       0.31667900       0.10630800      -0.10362800
O        7.08268000       8.81413000      10.69152000      -0.75263600       0.46870900      -0.44842100
O       13.58103000       9.12254000      10.70574000      -0.30119500      -0.13058300       0.10615700
O        4.59525000      10.95146000      10.71124000       0.36655800       0.03323600       0.25157500
O        9.01914000      14.82670000       9.78902000      -0.00107900      -0.17684300       0.00015800
O       16.50586000      11.13074000      10.70482000      -0.39903900      -0.09497900      -0.09923900
O        4.46236000       9.11699000       8.86315000       0.30840000      -0.12602700      -0.11102800
O       10.95807000       8.81401000       8.88204000       0.73587200       0.45145500       0.43220900
O       16.55366000       9.27500000       8.84096000      -0.31558400       0.10341100       0.10135000
17
Lattice="18.027634 0.0 0.0 0.0 20.0 0.0 0.0 0.0 20.0" Properties=species:S:1:pos:R:3:forces:R:3 energy=-131.58853175 stress="-6.35283 -0.03127 -0.24054 -0.03127 -2.91046 -0.04011 -0.24054 -0.04011 -0.05649" pbc="T T T"
Zr       3.00996000      10.13861000       9.79697000       1.39355000      -0.16465300       0.04296400
Zr       9.02350000       5.32459000       9.78728000       0.00082100       0.38160200       0.00005000
Zr      15.02815000      10.14889000       9.77050000      -1.36932800      -0.16992700      -0.04320700
Zr       0.00546000      10.22755000       9.78210000       0.00062900       0.01361600      -0.00029800
Zr       6.06072000       9.96960000       9.73267000      -0.50634000       0.39752700      -0.31976300
Zr      11.97874000       9.97188000       9.84042000       0.46943800       0.36129200       0.29490200
O        1.55239000      11.12168000       8.86681000      -0.22702000       0.04941500      -0.03033100
O       13.42458000      10.95333000       8.84945000       0.17012900      -0.18001000       0.07959000
O        1.48946000       9.26862000      10.71871000      -0.35605000      -0.10098000       0.10844000
O        7.04929000       8.82341000      10.68005000      -0.02204300      -0.26709700       0.14768100
O       13.56760000       9.11607000      10.70769000       0.16178900       0.16177300      -0.08151700
O        4.60940000      10.94514000      10.72292000      -0.16982300      -0.18234300      -0.08292900
O        9.01956000      14.81451000       9.78919000      -0.00083500      -0.17623100       0.00042600
O       16.49058000      11.12606000      10.70042000       0.22119300       0.04448900       0.03004800
O        4.47599000       9.11082000       8.86090000      -0.16381800       0.16296800       0.08268600
O       10.99087000       8.82287000       8.89307000       0.04812100      -0.23404000      -0.12165900
O       16.54468000       9.27738000       8.84342000       0.34958800      -0.09740100      -0.10708200
17
Lattice="18.027634 0.0 0.0 0.0 20.0 0.0 0.0 0.0 20.0" Properties=species:S:1:pos:R:3:forces:R:3 energy=-131.64643586 stress="-5.96421 0.04711 -0.7384 0.04711 -3.49356 0.04606 -0.7384 0.04606 -0.36687" pbc="T T T"
Zr       3.04535000      10.12975000       9.80041000      -0.74738700      -0.04269000       0.07570300
Zr       9.02340000       5.34982000       9.78715000      -0.00070800       0.38746600      -0.00007100
Zr      14.99339000      10.13985000       9.76694000       0.72046800      -0.04608700      -0.07808300
Zr       0.00552000      10.22780000       9.78212000      -0.00316400       0.03132000       0.00061700
Zr       6.05149000       9.98369000       9.71931000       0.27268000      -0.03756100       0.02634200
Zr      11.98672000       9.98499000       9.85319000      -0.22376200       0.00330600       0.01186600
O        1.55031000      11.12156000       8.86757000       0.26117700      -0.11675800       0.11427900
O       13.42514000      10.94420000       8.84772000      -0.10694400       0.01471500      -0.08420300
O        1.48013000       9.26595000      10.72160000       0.14706100       0.00148600      -0.02223700
O        7.03299000       8.81943000      10.67901000      -0.29863900       0.10994100      -0.17120600
O       13.56809000       9.11975000      10.70556000      -0.09457100      -0.04330400       0.14649200
O        4.60885000      10.93609000      10.72454000       0.10604200       0.01485600       0.08470100
O        9.01994000      14.80294000       9.78932000      -0.00101700      -0.18760000       0.00166200
O       16.49238000      11.12574000      10.69966000      -0.25319500      -0.11638600      -0.10973900
O        4.47549000       9.11464000       8.86295000       0.09180500      -0.04175200      -0.15081800
O       11.00788000       8.82000000       8.89490000       0.26836500       0.07054200       0.13594200
O       16.55384000       9.27482000       8.84053000      -0.13820900      -0.00149400       0.01875400
17
Lattice="18.027634 0.0 0.0 0.0 20.0 0.0 0.0 0.0 20.0" Properties=species:S:1:pos:R:3:forces:R:3 energy=-131.67623194 stress="-6.18678 -0.0387 -0.35654 -0.0387 -3.0807 -0.0513 -0.35654 -0.0513 -0.15382" pbc="T T T"
Zr       3.03153000      10.12602000       9.80398000       0.24304900      -0.08729800       0.05023000
Zr       9.02332000       5.37012000       9.78708000       0.00050900       0.39080000      -0.00047400
Zr      15.00646000      10.13595000       9.76326000      -0.20996800      -0.08746700      -0.05430800
Zr       0.00542000      10.22913000       9.78215000       0.00258100      -0.00595200      -0.00017600
Zr       6.05770000       9.98723000       9.71568000      -0.20086300       0.19792200      -0.17037800
Zr      11.98180000       9.98967000       9.85794000       0.15355400       0.14962400       0.12968600
O        1.55825000      11.11758000       8.87158000       0.02193200      -0.03011300       0.04372300
O       13.42189000      10.94156000       8.84444000       0.04101700      -0.04481000       0.01375700
O        1.48223000       9.26512000      10.72177000      -0.11853000      -0.05500700       0.04501500
O        7.01829000       8.82155000      10.67335000      -0.04451400      -0.15155000       0.04252000
O       13.56503000       9.11927000      10.70956000       0.03226100       0.07827100       0.06169100
O        4.61206000      10.93347000      10.72779000      -0.04296600      -0.04877800      -0.01265900
O        9.02009000      14.79331000       9.78942000      -0.00032900      -0.18958500       0.00103700
O       16.48463000      11.12173000      10.69581000      -0.03235700      -0.03469000      -0.04239300
O        4.47843000       9.11425000       8.85878000      -0.03485400       0.08119700      -0.05722400
O       11.02174000       8.82112000       8.89959000       0.07845000      -0.10746500      -0.00548400
O       16.55200000       9.27392000       8.84024000       0.11102800      -0.05509900      -0.04456100
17
Lattice="18.027634 0.0 0.0 0.0 20.0 0.0 0.0 0.0 20.0" Properties=species:S:1:pos:R:3:forces:R:3 energy=-131.68438884 stress="-6.24408 0.03734 -0.60571 0.03734 -3.50604 0.04354 -0.60571 0.04354 -0.40862" pbc="T T T"
Zr       3.03263000      10.12463000       9.80510000       0.13605400      -0.09987900       0.05503400
Zr       9.02331000       5.37870000       9.78701000      -0.00044600       0.40065800      -0.00037600
Zr      15.00616000      10.13458000       9.76202000      -0.16553100      -0.10112000      -0.05478800
Zr       0.00548000      10.22887000       9.78215000       0.00090200      -0.00733800       0.00003100
Zr       6.05476000       9.99175000       9.71190000      -0.00351900      -0.04472300       0.01717000
Zr      11.98352000       9.99305000       9.86065000       0.04844900      -0.00070300       0.01967000
O        1.55976000      11.11661000       8.87282000       0.03157200      -0.02846700       0.04146300
O       13.42259000      10.94107000       8.84421000       0.02677500      -0.03723400       0.01545100
O        1.48055000       9.26410000      10.72251000      -0.09525400      -0.04796800       0.03680400
O        7.01752000       8.81803000      10.67440000      -0.20370900       0.06398600      -0.13968400
O       13.56561000       9.12015000      10.71167000       0.01600300       0.09586600       0.05750800
O        4.61128000      10.93290000      10.72805000      -0.02374800      -0.03536500      -0.01546000
O        9.02026000      14.78913000       9.78945000      -0.00073900      -0.19454200       0.00052900
O       16.48284000      11.12065000      10.69460000      -0.02748500      -0.02779700      -0.03761000
O        4.47775000       9.11517000       8.85677000      -0.01477400       0.09529700      -0.05966800
O       11.02332000       8.81874000       8.89947000       0.17281700       0.02092000       0.10349900
O       16.55349000       9.27288000       8.83951000       0.10263300      -0.05159200      -0.03957100
17
Lattice="18.027634 0.0 0.0 0.0 20.0 0.0 0.0 0.0 20.0" Properties=species:S:1:pos:R:3:forces:R:3 energy=-131.64796903 stress="-6.97367 0.24016 -1.113 0.24016 -4.46346 0.30684 -1.113 0.30684 -1.06243" pbc="T T T"
Zr       3.02810000      10.13019000       9.80187000       0.38066400      -0.15303500       0.06757800
Zr       9.02334000       5.35525000       9.78701000      -0.00364300       0.40657600       0.00156900
Zr      15.01293000      10.14017000       9.76522000      -0.59355300      -0.15237200      -0.05650800
Zr       0.00543000      10.22953000       9.78214000       0.00780900      -0.02191000       0.00077400
Zr       6.05253000       9.99514000       9.71036000       0.30216200      -0.52180600       0.39709800
Zr      11.98234000       9.99309000       9.85939000      -0.01773800      -0.24155300      -0.16575800
O        1.55716000      11.11833000       8.87040000      -0.02314600      -0.00764500       0.02473500
O       13.42164000      10.94335000       8.84409000       0.07749200      -0.06308600       0.07216500
O        1.48520000       9.26660000      10.72066000      -0.15985000      -0.04661900       0.04361100
O        7.03086000       8.81301000      10.68356000      -0.55041200       0.49658100      -0.49757200
O       13.56525000       9.11548000      10.70820000       0.06176600       0.17830500       0.00816700
O        4.61203000      10.93498000      10.72814000      -0.05840200      -0.04045400      -0.06714300
O        9.02034000      14.80051000       9.78942000      -0.00164400      -0.18911100       0.00175300
O       16.48510000      11.12227000      10.69678000       0.06489200       0.00504000      -0.00895400
O        4.47797000       9.11054000       8.86044000      -0.04774400       0.17677600      -0.03291200
O       11.01231000       8.81695000       8.89300000       0.35031600       0.23997800       0.27823400
O       16.54827000       9.27563000       8.84154000       0.21103100      -0.06566300      -0.06683900
17
Lattice="18.027634 0.0 0.0 0.0 20.0 0.0 0.0 0.0 20.0" Properties=species:S:1:pos:R:3:forces:R:3 energy=-131.62915237 stress="-5.90452 -0.3898 -0.0517 -0.3898 -2.32565 -0.54857 -0.0517 -0.54857 0.37365" pbc="T T T"
Zr       3.04032000      10.13301000       9.79913000      -0.20786100      -0.06749300       0.04430000
Zr       9.02334000       5.32999000       9.78743000       0.00362200       0.36033900      -0.00174600
Zr      14.99251000      10.14320000       9.76853000       0.62895600      -0.07870900      -0.07002900
Zr       0.00589000      10.22942000       9.78218000      -0.04367600       0.00467600      -0.00665900
Zr       6.06417000       9.97496000       9.72784000      -0.57068100       0.68766200      -0.59053000
Zr      11.98101000       9.98261000       9.85013000       0.06826000       0.20932400       0.20465100
O        1.55105000      11.12136000       8.86684000       0.14667600      -0.06047500       0.06882900
O       13.42335000      10.94354000       8.84737000      -0.12574100       0.02471300      -0.08453000
O        1.48603000       9.26937000      10.71917000       0.00406100      -0.04398500       0.03499900
O        7.02670000       8.82998000      10.67524000       0.26966400      -0.58605300       0.42411200
O       13.56736000       9.11503000      10.70102000      -0.11804500      -0.01284800       0.13375000
O        4.61109000      10.93618000      10.72530000       0.08138300      -0.02666100       0.06209600
O        9.01959000      14.81331000       9.78944000       0.00042800      -0.18141600       0.00078800
O       16.49308000      11.12589000      10.70084000      -0.22023300      -0.09167200      -0.09261100
O        4.47662000       9.11028000       8.86648000       0.08388500       0.00659300      -0.08874200
O       11.00944000       8.82515000       8.89385000       0.08282900      -0.14306500      -0.04817600
O       16.54944000       9.27774000       8.84194000      -0.08352700      -0.00092900       0.00949700
17
Lattice="18.027634 0.0 0.0 0.0 20.0 0.0 0.0 0.0 20.0" Properties=species:S:1:pos:R:3:forces:R:3 energy=-131.61388312 stress="-6.17769 0.64221 -0.91376 0.64221 -3.50932 0.87586 -0.91376 0.87586 -0.40899" pbc="T T T"
Zr       3.03719000      10.13528000       9.79677000      -0.09009900      -0.07592000       0.09486500
Zr       9.02332000       5.30639000       9.78757000      -0.00792200       0.37803000       0.00435400
Zr      15.00957000      10.14510000       9.77013000      -0.56955800      -0.07486500      -0.06625400
Zr       0.00395000      10.22995000       9.78185000       0.12473000       0.02200600       0.00806700
Zr       6.04829000       9.98824000       9.71693000       0.63866200      -0.44430300       0.36848400
Zr      11.98028000       9.98021000       9.84871000       0.14185400       0.29674800       0.24118500
O        1.55185000      11.12215000       8.86543000       0.06770000      -0.06975800       0.07314200
O       13.41644000      10.94613000       8.84594000       0.18052400      -0.05699000       0.02625500
O        1.49110000       9.27225000      10.71785000      -0.09185500      -0.03842500       0.02739300
O        7.03980000       8.81822000      10.69146000      -0.57669600       0.46884600      -0.47499200
O       13.56185000       9.11078000      10.69762000       0.16584700       0.06580000       0.07744400
O        4.61633000      10.93717000      10.72596000      -0.10747300       0.01609700       0.01243200
O        9.01958000      14.82522000       9.78966000      -0.00346400      -0.17740400      -0.00038900
O       16.49043000      11.12560000      10.70146000       0.01299900      -0.02291100      -0.02528200
O        4.48095000       9.10741000       8.87094000      -0.10270200       0.03733200      -0.15164300
O       11.00787000       8.82862000       8.89028000       0.02902100      -0.22027600      -0.11673300
O       16.54227000       9.28230000       8.84436000       0.18843200      -0.10400800      -0.09832900
17
Lattice="18.027634 0.0 0.0 0.0 20.0 0.0 0.0 0.0 20.0" Properties=species:S:1:pos:R:3:forces:R:3 energy=-131.61551599 stress="-6.37033 0.06807 -0.70486 0.06807 -3.19211 0.06211 -0.70486 0.06211 -0.22299" pbc="T T T"
Zr       3.03553000      10.13843000       9.79532000       0.11078200      -0.08843700       0.07208700
Zr       9.02315000       5.29018000       9.78762000      -0.00193600       0.36245400       0.00079800
Zr      15.00285000      10.14829000       9.77203000      -0.11944400      -0.09386000      -0.07715100
Zr       0.00550000      10.23065000       9.78194000       0.00115400       0.00624900       0.00024000
Zr       6.05765000       9.97947000       9.72514000       0.05571400       0.03426200      -0.03671300
Zr      11.98052000       9.98050000       9.84800000       0.00465900       0.10262000       0.09453100
O        1.54981000      11.12298000       8.86408000       0.05911500      -0.04264200       0.05120000
O       13.41833000      10.94713000       8.84706000       0.06048800      -0.02745800       0.00089600
O        1.49319000       9.27401000      10.71668000      -0.11123300      -0.05716500       0.05419600
O        7.03979000       8.82528000      10.68909000      -0.23214500       0.03038000      -0.09195500
O       13.56403000       9.10872000      10.69483000       0.05225200       0.05877500       0.09774200
O        4.61533000      10.93918000      10.72535000      -0.05434200      -0.02689300       0.00231900
O        9.01967000      14.83329000       9.78974000      -0.00238700      -0.17599100      -0.00021500
O       16.49365000      11.12705000      10.70337000      -0.06417600      -0.04869300      -0.05323100
O        4.47955000       9.10511000       8.87268000      -0.04573100       0.05935200      -0.09946900
O       11.00105000       8.82743000       8.88548000       0.18022700      -0.03749500       0.03541900
O       16.54144000       9.28330000       8.84454000       0.10700000      -0.05545800      -0.05069200
17
Lattice="18.027634 0.0 0.0 0.0 20.0 0.0 0.0 0.0 20.0" Properties=species:S:1:pos:R:3:forces:R:3 energy=-131.6048178 stress="-6.18019 0.05042 -0.80563 0.05042 -3.27249 0.03745 -0.80563 0.03745 -0.24685" pbc="T T T"
Zr       3.04806000      10.13813000       9.79502000      -0.71496400      -0.06101500       0.08136800
Zr       9.02318000       5.29060000       9.78760000      -0.00165200       0.36003200       0.00077600
Zr      14.99012000      10.14802000       9.77239000       0.72150600      -0.06359700      -0.08810700
Zr       0.00556000      10.23045000       9.78196000      -0.00355900       0.00775900       0.00001000
Zr       6.05561000       9.97941000       9.72538000       0.23455900      -0.02724100       0.00185500
Zr      11.98281000       9.98072000       9.84792000      -0.19501400       0.01686800       0.03691700
O        1.54633000      11.12417000       8.86306000       0.24603600      -0.09776800       0.09757700
O       13.42115000      10.94640000       8.84844000      -0.10092900       0.03610000      -0.08251900
O        1.48983000       9.27315000      10.71754000       0.09497200      -0.00877300      -0.00146600
O        7.04136000       8.82463000      10.68932000      -0.29662600       0.09620300      -0.14554100
O       13.56654000       9.11027000      10.69392000      -0.09537600      -0.02941700       0.16772000
O        4.61262000      10.93849000      10.72399000       0.10268300       0.03549200       0.08406900
O        9.01966000      14.83303000       9.78968000      -0.00206600      -0.17859400       0.00001800
O       16.49710000      11.12825000      10.70433000      -0.25149500      -0.10324700      -0.09972400
O        4.47710000       9.10649000       8.87366000       0.09965500      -0.02750200      -0.16699300
O       10.99926000       8.82639000       8.88498000       0.26161500       0.05046200       0.10772900