17
Lattice="18.027634 0.0 0.0 0.0 20.0 0.0 0.0 0.0 20.0" Properties=species:S:1:pos:R:3:forces:R:3 energy=-142.74120274 stress="14.42673 -18.37972 0.16261 -18.37972 33.39857 -9.80616 0.16261 -9.80616 3.78243" pbc="T T T"
Zr       3.01807000      10.15170000       9.74891000      -0.60009700      -0.00260800       0.06926600
Zr       8.96019000       9.39147000       9.37112000      14.29429500     -26.41432900       7.30085800
Zr      15.01934000      10.16400000       9.75445000      -0.31553800      -0.00903400      -0.03538700
Zr       0.00534000      10.22371000       9.78185000      -0.30526100      -0.01524800       0.01177200
Zr       6.01522000       9.93356000       9.63027000       1.47945300      -0.03187100       0.29390000
Zr      12.03045000       9.95341000       9.66450000      -0.02889600      -0.54969200      -0.27172500
O        1.52287000      11.13304000       8.85164000       0.17698900      -0.00269000      -0.02528300
O       13.47260000      11.01036000       8.80363000       0.17933400       0.16191900      -0.01964600
O        1.49700000       9.27083000      10.70434000       0.15496300       0.01056200      -0.00934000
O        7.42894000       8.80194000      10.42049000      -3.04133600      -0.56485800       1.07630000
O       13.54439000       9.15466000      10.65639000       0.11381800      -0.06195300       0.02529800
O        4.61817000      10.97653000      10.61396000       0.31251300      -0.20580600       0.01140000
O        8.25856000      10.62699000       9.06193000     -15.95847400      27.42375800      -7.73371100
O       16.49359000      11.12781000      10.69536000       0.16537500       0.01759500       0.02417000
O        4.42038000       9.13139000       8.76197000       0.32109800       0.02787600       0.01475100
O       10.75558000       8.86602000       8.69247000       2.86874100       0.22007000      -0.71238600
O       16.55014000       9.27501000       8.83572000       0.18302300      -0.00369400      -0.02023900
17
Lattice="18.027634 0.0 0.0 0.0 20.0 0.0 0.0 0.0 20.0" Properties=species:S:1:pos:R:3:forces:R:3 energy=-139.49122315 stress="-8.08889 4.18832 1.9767 4.18832 -1.77838 0.46165 1.9767 0.46165 3.16233" pbc="T T T"
Zr       2.98938000      10.15155000       9.76811000       2.81616100      -0.07056500      -0.17483600
Zr       9.67734000       8.11497000       9.91117000      -5.02135200      -0.22462000       2.25862800
Zr      15.00424000      10.16277000       9.76597000       1.59511500       0.27415400      -0.06821500
Zr      -0.00939000      10.22297000       9.78242000       1.13162000       0.07382000      -0.02472100
Zr       6.08540000       9.93503000       9.70718000       0.07945700       3.38997700      -1.16311700
Zr      12.02772000       9.92164000       9.71336000       2.63372500       2.93704500       2.30374800
O        1.53803000      11.13056000       8.85576000      -0.82831900       0.07246000      -0.03759600
O       13.46797000      11.01173000       8.83678000      -0.35979900      -0.13524000      -0.02776400
O        1.50080000       9.27042000      10.70976000      -0.85407900      -0.13886900       0.15933200
O        7.24970000       8.78781000      10.57610000       2.57395500      -1.66347600       0.00873600
O       13.56804000       9.14690000      10.69039000      -0.59336200      -0.15375100      -0.20508700
O        4.62121000      10.97139000      10.65034000      -0.27774900      -0.66465900       0.02540000
O        7.83210000      11.94796000       9.01611000      -1.27487700      -2.31594900       0.44207600
O       16.50700000      11.13069000      10.70027000      -0.65683900      -0.06898600      -0.02804100
O        4.45307000       9.13573000       8.79775000      -0.08176100       0.21128800       0.26514200
O       10.86176000       8.86037000       8.76174000      -0.22281000      -1.49875300      -3.74164800
O       16.55631000       9.27579000       8.83898000      -0.65908700      -0.02387500       0.00796300
17
Lattice="18.027634 0.0 0.0 0.0 20.0 0.0 0.0 0.0 20.0" Properties=species:S:1:pos:R:3:forces:R:3 energy=-138.60668166 stress="-16.84478 -3.88903 2.03876 -3.88903 -13.55935 3.88025 2.03876 3.88025 -6.46108" pbc="T T T"
Zr       3.12347000      10.14809000       9.76783000      -3.42308500      -0.40917200      -0.11230200
Zr       9.51198000       7.80906000      10.14579000      -0.91161500       3.71178200      -2.04466600
Zr      15.08039000      10.17564000       9.76882000       0.21612400      -0.34923000      -0.20937500
Zr       0.04417000      10.22643000       9.78128000       0.63235900      -0.09526300       0.03430600
Zr       6.09397000      10.09922000       9.68375000       4.18590600       0.20362300       0.65771800
Zr      12.15622000      10.05747000       9.85324000      -4.70835300      -1.92966400      -1.58233800
O        1.50183000      11.13294000       8.85638000       0.66913600      -0.17426200       0.15583000
O       13.44465000      11.00319000       8.85210000       0.78442800       0.50755800      -0.16029200
O        1.45817000       9.26328000      10.72036000       0.67318500       0.22533000      -0.27898500
O        7.33648000       8.71065000      10.63376000       1.30124000       0.28383200      -1.86201400
O       13.54820000       9.13664000      10.69633000       1.03836500      -0.06545500       0.33832400
O        4.60344000      10.94096000      10.66903000       0.90565700       0.65082700       0.79921000
O        7.86555000      12.13641000       9.16248000      -2.21872100      -2.70314100       0.39942600
O       16.47854000      11.12845000      10.70091000       0.13783700       0.21489100       0.18836600
O        4.45941000       9.14741000       8.82810000       1.12105200       0.33109900      -0.40825700
O       10.85670000       8.78042000       8.62580000      -0.48700500      -0.36865400       4.15553500
O       16.52393000       9.27510000       8.84131000       0.08349000      -0.03410100      -0.07048500
17
Lattice="18.027634 0.0 0.0 0.0 20.0 0.0 0.0 0.0 20.0" Properties=species:S:1:pos:R:3:forces:R:3 energy=-139.40787441 stress="-27.62126 -3.25038 2.11408 -3.25038 -15.6778 2.96844 2.11408 2.96844 -6.66429" pbc="T T T"
Zr       3.03798000      10.13747000       9.76851000       2.54737100      -0.17404100       0.05450900
Zr       9.50768000       7.74221000      10.15210000      -1.09696800       3.67190800      -1.56037700
Zr      15.08885000      10.16702000       9.76616000      -1.46727600      -0.02595000       0.06852400
Zr       0.06237000      10.22409000       9.78215000      -1.36889200       0.06736400       0.02427800
Zr       6.20828000      10.11096000       9.71469000       0.43598400       1.04083700       0.62714700
Zr      12.03497000      10.00978000       9.82960000       0.19300400      -1.18144100      -0.86707400
O        1.51970000      11.12789000       8.86162000       0.24403100       0.09684700      -0.14304900
O       13.46235000      11.01492000       8.85544000      -0.63918300      -0.47621500       0.58930900
O        1.47354000       9.26872000      10.71476000       0.22905900      -0.21765000       0.11096600
O        7.35570000       8.71717000      10.61201000       1.70521300      -0.16317100      -1.44899700
O       13.57966000       9.13247000      10.71262000      -0.74808100       0.63381400      -0.53832100
O        4.62358000      10.95752000      10.69884000       0.33515900      -0.48402500      -0.37141200
O        7.86084000      12.22827000       9.23864000      -1.90445200      -2.87951600       0.35964200
O       16.48237000      11.13438000      10.70669000       0.69775600       0.02221300       0.01111000
O        4.49218000       9.15627000       8.82611000       0.66419100       0.97034400       0.29416300
O       10.84767000       8.76452000       8.74993000      -0.67383600      -0.78533900       2.94073200
O       16.52459000       9.27438000       8.84040000       0.84692000      -0.11597900      -0.15115000
17
Lattice="18.027634 0.0 0.0 0.0 20.0 0.0 0.0 0.0 20.0" Properties=species:S:1:pos:R:3:forces:R:3 energy=-139.6794208 stress="-27.55236 -2.45485 2.2009 -2.45485 -15.16248 3.64329 2.2009 3.64329 -4.79152" pbc="T T T"
Zr       3.09402000      10.13237000       9.77259000      -0.36948300      -0.02189200       0.05779700
Zr       9.49494000       7.69395000      10.15808000      -1.25063000       3.71257700      -1.29234300
Zr      15.05581000      10.16580000       9.76973000       0.24620800       0.01765300      -0.00110500
Zr       0.03233000      10.22554000       9.78278000       0.78134400       0.00760600       0.00503800
Zr       6.22921000      10.14136000       9.74151000       0.63086600       0.87220000       0.48769900
Zr      12.03207000       9.98036000       9.82083000      -0.18873800      -0.55374100      -0.28496400
O        1.52733000      11.12948000       8.85945000       0.30348400      -0.25138100       0.19150400
O       13.44617000      11.00308000       8.87527000      -0.52813500      -0.22247500       0.18824000
O        1.47867000       9.26369000      10.71820000       0.27746000       0.09269500      -0.22011300
O        7.38614000       8.71282000      10.59689000       1.68992400      -0.17461100      -1.40588100
O       13.56744000       9.14549000      10.70645000      -0.51957600       0.17220700      -0.19236200
O        4.63101000      10.94698000      10.69913000       0.89556500      -0.05289000       0.14648300
O        7.85905000      12.29738000       9.30391000      -1.87356600      -2.93226500       0.30695200
O       16.49972000      11.13575000      10.70816000      -0.24956700      -0.10979700      -0.10386300
O        4.51360000       9.18014000       8.83972000       1.28564100       0.59053100      -0.08974200
O       10.83330000       8.73938000       8.84166000      -0.95699900      -1.21629300       2.15884200
O       16.54390000       9.27170000       8.83741000      -0.17379800       0.06987600       0.04781800
17
Lattice="18.027634 0.0 0.0 0.0 20.0 0.0 0.0 0.0 20.0" Properties=species:S:1:pos:R:3:forces:R:3 energy=-139.98968435 stress="-26.03478 -1.77653 1.99144 -1.77653 -14.49902 2.38375 1.99144 2.38375 -2.17326" pbc="T T T"
Zr       3.11042000      10.13074000       9.78186000       0.50243200      -0.13635800      -0.09111000
Zr       9.45162000       7.62570000      10.16927000      -1.49306400       3.74631000      -0.92238800
Zr      15.05792000      10.16741000       9.77508000       0.04657500      -0.02207100      -0.10554900
Zr       0.05917000      10.22687000       9.78311000      -0.24785300      -0.06513900      -0.00293700
Zr       6.25495000      10.19883000       9.78870000       1.26230700       0.55284200       0.12095300
Zr      12.04065000       9.95176000       9.83020000      -0.98836800      -0.12738200      -0.02978100
O        1.54352000      11.11772000       8.86892000       0.50350500      -0.06532900       0.02947300
O       13.40729000      10.98337000       8.90081000       0.07398400       0.10378500      -0.20920400
O        1.48956000       9.26531000      10.71148000       0.43423800      -0.06808200      -0.06775000
O        7.45301000       8.70243000      10.56183000       1.73612500      -0.27784400      -1.30258400
O       13.53810000       9.15613000      10.70182000       0.34093100      -0.29880500       0.33893800
O        4.67116000      10.93760000      10.71433000       0.11493900       0.23582500       0.52470400
O        7.85093000      12.40901000       9.42383000      -1.88524500      -3.03972500       0.21333800
O       16.49363000      11.13049000      10.70395000       0.03333500      -0.05678000      -0.05965600
O        4.58530000       9.21637000       8.85264000       0.69170500       0.73224200      -0.00387900
O       10.78923000       8.66590000       8.98590000      -1.15679500      -1.34832500       1.45999000
O       16.54035000       9.27467000       8.84016000       0.03124800       0.13483600       0.10744200
17
Lattice="18.027634 0.0 0.0 0.0 20.0 0.0 0.0 0.0 20.0" Properties=species:S:1:pos:R:3:forces:R:3 energy=-140.50227167 stress="-29.58912 -1.57015 1.02621 -1.57015 -15.54578 1.93168 1.02621 1.93168 -1.40417" pbc="T T T"
Zr       3.13960000      10.12434000       9.78651000       0.86386700       0.06956500       0.07203700
Zr       9.37404000       7.57357000      10.18244000      -1.84894700       3.25265400      -0.29947300
Zr      15.06514000      10.16743000       9.77564000      -0.94249900      -0.05869800      -0.01449700
Zr       0.06776000      10.22478000       9.78305000       0.07441500      -0.03858000       0.03105800
Zr       6.32264000      10.25618000       9.82981000       0.50501200       0.93269800       0.19315000
Zr      12.00479000       9.93588000       9.85275000       0.40313400      -0.32449800       0.03923800
O        1.57522000      11.10728000       8.87707000       0.30211100      -0.05205000       0.02293300
O       13.38643000      10.97495000       8.91045000      -0.18408200      -0.15402300       0.02961400
O        1.51273000       9.26334000      10.70579000       0.25983100      -0.09979000      -0.07672000
O        7.54582000       8.68531000      10.51175000       1.76144600      -0.40296500      -1.13098100
O       13.54097000       9.14505000      10.72126000      -0.13824900       0.11486800      -0.00139900
O        4.69555000      10.94289000      10.75494000       0.20901900       0.07386900       0.31880700
O        7.82948000      12.51771000       9.56251000      -1.88488100      -3.36512400       0.10229700
O       16.49005000      11.12488000      10.69936000       0.31945800       0.06021800       0.04745100
O        4.65857000       9.26680000       8.86734000       0.71230500       0.68058400      -0.07808100
O       10.71956000       8.56127000       9.13893000      -0.73442100      -0.64988300       0.81864900
O       16.53650000       9.28297000       8.84783000       0.32248300      -0.03884300      -0.07408300
17
Lattice="18.027634 0.0 0.0 0.0 20.0 0.0 0.0 0.0 20.0" Properties=species:S:1:pos:R:3:forces:R:3 energy=-140.99528112 stress="-30.09917 -3.10282 0.23448 -3.10282 -16.25122 0.87347 0.23448 0.87347 -1.0209" pbc="T T T"
Zr       3.18680000      10.12382000       9.79395000      -0.11916500       0.15848100       0.10815300
Zr       9.27875000       7.54341000      10.20563000      -1.33010800       2.43540400      -0.07228400
Zr      15.03069000      10.16460000       9.77695000       0.79449700       0.04197400       0.00278900
Zr       0.07194000      10.22263000       9.78424000       0.41303700      -0.03200600       0.01823300
Zr       6.37087000      10.31653000       9.86237000       0.20775500       1.33254500       0.23967500
Zr      12.00406000       9.91653000       9.87340000      -0.22912100      -0.67594900      -0.16837900
O        1.60113000      11.10084000       8.88184000       0.36187800      -0.11751900       0.11464900
O       13.36833000      10.96316000       8.92004000      -0.27572400      -0.06105200      -0.01083800
O        1.53155000       9.25829000      10.70180000       0.34362400      -0.04241700      -0.13867100
O        7.63564000       8.66462000      10.46499000       1.03318400      -0.02679100      -0.83557800
O       13.53899000       9.14369000      10.73314000      -0.12529400      -0.01591200       0.13742400
O        4.71166000      10.94688000      10.78953000       0.55242500       0.12262600       0.29987400
O        7.79811000      12.57032000       9.67109000      -2.03372300      -3.75312500       0.00986800
O       16.50208000      11.12515000      10.69988000      -0.21456300      -0.15702700      -0.15458200
O        4.71812000       9.31323000       8.87666000       0.94723400       0.60661800      -0.19482000
O       10.66869000       8.49164000       9.24778000      -0.12146200       0.07991000       0.55744800
O       16.54787000       9.28486000       8.84853000      -0.20447400       0.10423800       0.08703700
17
Lattice="18.027634 0.0 0.0 0.0 20.0 0.0 0.0 0.0 20.0" Properties=species:S:1:pos:R:3:forces:R:3 energy=-141.39830282 stress="-29.85847 -4.90431 0.30872 -4.90431 -16.28922 0.99482 0.30872 0.99482 -0.81704" pbc="T T T"
Zr       3.19660000      10.12841000       9.80211000       0.78660800       0.03402100      -0.01592400
Zr       9.21101000       7.51244000      10.23133000      -0.31451300       2.09391400      -0.31855200
Zr      15.04810000      10.16475000       9.77872000      -0.30046000       0.01808500      -0.02216000
Zr       0.08818000      10.22121000       9.78519000       0.18049800      -0.06102500      -0.00902000
Zr       6.39192000      10.38128000       9.88652000       0.57452000       1.65374000       0.11565200
Zr      11.99600000       9.88814000       9.88166000      -0.04887400      -0.43743800      -0.13458000
O        1.62136000      11.09437000       8.88798000       0.24115600      -0.02669300       0.07079900
O       13.35066000      10.95511000       8.92651000      -0.07014000      -0.19436900       0.05743300
O        1.54748000       9.25546000      10.69665000       0.23680300      -0.08000700      -0.08075700
O        7.68439000       8.65904000      10.43607000       0.32149300       0.33272600      -0.56059800
O       13.53425000       9.14243000      10.74337000       0.13887300      -0.06200400       0.12461900
O        4.73526000      10.95060000      10.81357000       0.10254800       0.18474000       0.31832100
O        7.75947000      12.56686000       9.74083000      -2.28176000      -4.14799700      -0.05102500
O       16.49797000      11.11981000      10.69499000       0.16660900      -0.02225000      -0.02099900
O        4.77049000       9.34668000       8.87760000       0.41924500       0.81292500      -0.02037500
O       10.65474000       8.47177000       9.31093000      -0.32347500      -0.11245000       0.55518300
O       16.54374000       9.28891000       8.85202000       0.17086700       0.01408100      -0.00801500
17
Lattice="18.027634 0.0 0.0 0.0 20.0 0.0 0.0 0.0 20.0" Properties=species:S:1:pos:R:3:forces:R:3 energy=-141.6703218 stress="-30.84652 -4.53201 0.34192 -4.53201 -17.09864 1.08394 0.34192 1.08394 -0.66364" pbc="T T T"
Zr       3.21515000      10.12835000       9.80246000       0.43087000       0.07934100       0.05899200
Zr       9.21270000       7.49261000      10.23543000      -0.76551500       2.50188300      -0.27183500
Zr      15.04398000      10.16521000       9.77867000       0.08781200      -0.00737400       0.00460400
Zr       0.09327000      10.21986000       9.78471000       0.29700200      -0.06140800       0.01121400
Zr       6.40469000      10.42081000       9.89158000       0.84081800       1.80508100       0.19525900
Zr      11.99398000       9.88108000       9.88458000       0.12624300      -0.42652000      -0.04239700
O        1.62699000      11.09335000       8.89039000       0.25423000      -0.02073600       0.06096400
O       13.34806000      10.94915000       8.92938000      -0.18372200      -0.17487300       0.02904700
O        1.55194000       9.25380000      10.69526000       0.24616200      -0.08287700      -0.09717200
O        7.67827000       8.66994000      10.43343000       0.74938400       0.01326300      -0.59228400
O       13.53919000       9.13897000      10.74863000      -0.01488800      -0.02785300       0.06546200
O        4.73613000      10.95451000      10.82361000       0.14449500       0.26177900       0.34314900
O        7.73212000      12.53828000       9.76156000      -2.45714700      -4.40386700      -0.07351300
O       16.50039000      11.11876000      10.69423000       0.05903800      -0.03783300      -0.03823500
O        4.77973000       9.36505000       8.88048000       0.46365000       0.74517500      -0.16376600
O       10.65022000       8.46689000       9.32828000      -0.32551200      -0.18680600       0.51000600
O       16.54624000       9.28970000       8.85259000       0.04708000       0.02362400       0.00050500
17
Lattice="18.027634 0.0 0.0 0.0 20.0 0.0 0.0 0.0 20.0" Properties=species:S:1:pos:R:3:forces:R:3 energy=-141.01278415 stress="-29.17437 -3.29711 0.01105 -3.29711 -15.16938 1.2822 0.01105 1.2822 -0.62811" pbc="T T T"
Zr       3.19166000      10.12575000       9.79487000      -0.15074500       0.08244200       0.08387300
Zr       9.25020000       7.53800000      10.21482000      -0.94294400       2.26575200      -0.16046100
Zr      15.03410000      10.16694000       9.77660000       0.13112500      -0.01369100       0.02063700
Zr       0.07360000      10.22326000       9.78417000       0.27323000      -0.07816600       0.03065200
Zr       6.34908000      10.31109000       9.86908000       0.79209900       1.24193600       0.04630600
Zr      11.98790000       9.90042000       9.86828000       0.30691000      -0.40455400      -0.00374600
O        1.60984000      11.09593000       8.88492000       0.41883800      -0.06826600       0.08246800
O       13.36379000      10.96351000       8.92248000      -0.25772500      -0.16815400       0.02827600
O        1.53910000       9.25862000      10.69972000       0.40080600      -0.02888100      -0.14169600
O        7.65569000       8.66895000      10.44426000       0.68605700       0.02479600      -0.66838700
O       13.53789000       9.14410000      10.73877000      -0.15521000       0.04199000       0.01765200
O        4.72982000      10.93980000      10.79363000       0.07122500       0.23959000       0.50404500
O        7.80246000      12.59185000       9.69405000      -1.97047200      -3.59523000      -0.03256800
O       16.49937000      11.12163000      10.69654000       0.01567800      -0.05421200      -0.06723800
O        4.74851000       9.32204000       8.88194000       0.66572100       0.59350700      -0.20343900
O       10.66422000       8.48988000       9.27488000      -0.29679900      -0.13350900       0.44376300
O       16.54613000       9.28764000       8.85118000       0.01220600       0.05464900       0.01986500
17
Lattice="18.027634 0.0 0.0 0.0 20.0 0.0 0.0 0.0 20.0" Properties=species:S:1:pos:R:3:forces:R:3 energy=-140.3347695 stress="-25.81419 -1.75391 0.14374 -1.75391 -11.58724 0.71278 0.14374 0.71278 -0.51541" pbc="T T T"
Zr       3.13141000      10.12248000       9.78541000       0.76484200       0.12667400       0.18027700
Zr       9.28726000       7.60170000      10.19082000      -1.03787600       1.92640800      -0.08274500
Zr      15.01996000      10.16974000       9.77452000      -0.02906000      -0.01815200       0.01373500
Zr       0.04908000      10.22590000       9.78440000       0.00640600      -0.04602800       0.02266100
Zr       6.27890000      10.14771000       9.83164000       0.32733900       1.20811700       0.14417400
Zr      11.98547000       9.92058000       9.84656000       0.21951800      -0.30868900      -0.01236400
O        1.60219000      11.09502000       8.88064000       0.25534100       0.00193200       0.01524800
O       13.37920000      10.98068000       8.91458000      -0.17545900      -0.10606600      -0.00650500
O        1.53663000       9.26821000      10.70116000       0.24005200      -0.10370600      -0.05285400
O        7.62455000       8.67576000      10.44510000       0.74403300      -0.23613200      -0.60012500
O       13.53023000       9.15366000      10.72540000      -0.07176500       0.03056000       0.07466100
O        4.71978000      10.92057000      10.76989000      -0.16722100      -0.09921300       0.28069900
O        7.90131000      12.67334000       9.61187000      -1.29998700      -2.57103800      -0.04116600
O       16.49696000      11.12380000      10.69723000       0.11095400      -0.04931400      -0.06713700
O        4.72949000       9.26660000       8.88296000       0.29947100       0.30334500      -0.26089300
O       10.67792000       8.51974000       9.21358000      -0.29815400      -0.11714400       0.36977700
O       16.54532000       9.28781000       8.85115000       0.11156600       0.05844600       0.02255800
17
Lattice="18.027634 0.0 0.0 0.0 20.0 0.0 0.0 0.0 20.0" Properties=species:S:1:pos:R:3:forces:R:3 energy=-139.5899506 stress="-17.04344 -0.35032 1.7769 -0.35032 -6.29958 0.6827 1.7769 0.6827 0.59472" pbc="T T T"
Zr       3.08179000      10.12328000       9.78150000       0.75505500       0.02760100       0.06534100
Zr       9.29490000       7.70016000      10.16856000      -0.51621000       1.20926500      -0.13653300
Zr      14.99274000      10.17317000       9.77251000       0.13874300       0.01998700      -0.03193100
Zr       0.00488000      10.22858000       9.78576000       0.73629300      -0.00567700      -0.01800300
Zr       6.17340000       9.93718000       9.78531000       0.98477600       2.44666300       0.88202000
Zr      11.98422000       9.93653000       9.81599000      -0.11264900      -0.13251300      -0.07650000
O        1.60285000      11.09339000       8.87454000      -0.09155300       0.06275500       0.02187700
O       13.39515000      11.00303000       8.90395000      -0.09467400      -0.03117100      -0.04772400
O        1.54344000       9.27791000      10.70244000      -0.10264000      -0.13442700       0.05444000
O        7.60292000       8.67505000      10.42544000       0.74809100      -0.61672000      -0.24729800
O       13.51759000       9.16926000      10.71186000       0.06640100      -0.08671400       0.22034100
O        4.69491000      10.87902000      10.74724000      -0.11173200      -0.35587500       0.05257100
O        8.04378000      12.79537000       9.51316000      -0.68711500      -1.61888900      -0.03854700
O       16.49987000      11.12465000      10.69504000      -0.09633200       0.03540400       0.02455800
O        4.71584000       9.18883000       8.87696000      -1.17012600      -0.68061600      -0.99878300
O       10.68929000       8.56113000       9.14647000      -0.35442200      -0.11176200       0.32664400
O       16.55059000       9.29150000       8.85300000      -0.09190600      -0.02731100      -0.05247400
17
Lattice="18.027634 0.0 0.0 0.0 20.0 0.0 0.0 0.0 20.0" Properties=species:S:1:pos:R:3:forces:R:3 energy=-139.30589293 stress="-14.71215 0.31783 2.08932 0.31783 -5.2451 0.53001 2.08932 0.53001 0.68052" pbc="T T T"
Zr       3.05994000      10.12165000       9.77598000       0.78371500      -0.07196900      -0.03082300
Zr       9.32005000       7.74611000      10.15168000      -0.69853600       1.07211000      -0.04621200
Zr      14.98509000      10.17516000       9.77056000       0.31329200       0.01794800      -0.02082600
Zr      -0.00521000      10.23129000       9.78539000       0.63135700      -0.01564300      -0.00798100
Zr       6.13076000       9.85574000       9.77266000       1.11087100       2.65291200       0.91382900
Zr      11.97909000       9.95116000       9.79968000       0.02303300      -0.12395100      -0.04106900
O        1.58984000      11.09548000       8.87032000      -0.09396500       0.08700000      -0.00280900
O       13.40717000      11.01589000       8.89731000      -0.20437700      -0.03288800      -0.04467400
O        1.53422000       9.28172000      10.70625000      -0.11559000      -0.13641300       0.07370100
O        7.58774000       8.66865000      10.43058000       1.00563500      -0.81914400      -0.18883400
O       13.51512000       9.17429000      10.70519000      -0.09240800      -0.03802100       0.17085000
O        4.68615000      10.85938000      10.72397000      -0.08998600      -0.38049200       0.04907800
O        8.11179000      12.84462000       9.45283000      -0.51222100      -1.36169900      -0.02248000
O       16.49751000      11.12727000      10.69674000      -0.14088100       0.02207600       0.00507200
O        4.67759000       9.13774000       8.86543000      -1.51906100      -0.80956900      -1.03412400
O       10.69937000       8.58455000       9.10090000      -0.27089100      -0.06158900       0.25723500
O       16.54921000       9.29012000       8.85159000      -0.12998700      -0.00066700      -0.02993400
17
Lattice="18.027634 0.0 0.0 0.0 20.0 0.0 0.0 0.0 20.0" Properties=species:S:1:pos:R:3:forces:R:3 energy=-139.40862446 stress="-16.16194 -0.049 1.58407 -0.049 -6.06209 0.32564 1.58407 0.32564 0.26234" pbc="T T T"
Zr       3.07194000      10.12054000       9.77539000       0.28283500      -0.06662100      -0.04354600
Zr       9.32242000       7.73925000      10.15216000      -0.68886900       1.08369000      -0.04261300
Zr      14.97983000      10.17416000       9.77072000       0.83818600       0.03288800      -0.01648900
Zr      -0.00243000      10.23128000       9.78522000       0.63653300      -0.02074500      -0.00317000
Zr       6.14424000       9.87827000       9.77785000       0.73773800       2.22388900       0.63634800
Zr      11.98545000       9.95451000       9.80419000      -0.26535400      -0.26405900      -0.11398700
O        1.58557000      11.09737000       8.86951000       0.05798400       0.01175100       0.05292100
O       13.40674000      11.01356000       8.89820000      -0.24400200       0.03115900      -0.08945400
O        1.52954000       9.28007000      10.70757000       0.04611700      -0.07972700      -0.00192900
O        7.59152000       8.66388000      10.43674000       0.84949500      -0.64237900      -0.26839200
O       13.51588000       9.17357000      10.70458000      -0.10233600      -0.08056200       0.23348300
O        4.68511000      10.86318000      10.72262000       0.05851200      -0.31391300       0.12865500
O        8.10018000      12.83327000       9.45759000      -0.56145400      -1.43517300      -0.01453800
O       16.49976000      11.12901000      10.69875000      -0.27287300      -0.04639900      -0.06081900
O        4.66707000       9.14142000       8.86465000      -0.91461500      -0.53358300      -0.74486400
O       10.69771000       8.57902000       9.10140000      -0.19816400       0.04637500       0.32181200