17
Lattice="19.527634 0.0 0.0 0.0 20.0 0.0 0.0 0.0 20.0" Properties=species:S:1:pos:R:3:forces:R:3 energy=-147.32310386 stress="-39.21377 0.10676 -0.10085 0.10676 -3.48346 0.17091 -0.10085 0.17091 -3.48918" pbc="T T T"
Zr       3.15407000      10.19744000       9.81208000       0.10747700       0.00199300      -0.00724200
Zr      10.17599000      10.10997000       9.89611000       0.67849500      -0.17500600       0.16933500
Zr      16.52009000      10.15747000       9.84345000      -3.13967600       0.07783000      -0.06844000
Zr       0.00580000      10.22388000       9.78154000       2.23710700       0.00798600      -0.00064400
Zr       6.27076000      10.15842000       9.85048000      -0.57220900      -0.20900800       0.20487200
Zr      13.29181000      10.13071000       9.87247000       0.67253100       0.00814100      -0.01182900
O        1.60743000      11.12822000       8.87816000      -0.04603400      -0.31392100       0.31351100
O       14.85034000      11.05775000       8.94180000       0.50784200      -0.49140500       0.49357800
O        1.56335000       9.29359000      10.71567000      -0.03787100       0.31269700      -0.31858000
O        8.20988000       9.68099000      10.32705000      -0.00629100       0.41707100      -0.41681300
O       14.88178000       9.22492000      10.77872000       0.44854400       0.49558400      -0.49851800
O        4.74435000      11.10790000      10.73967000      -0.00963900      -0.35032900      -0.34766500
O       11.70516000      11.05077000      10.79140000      -0.13909300      -0.33695300      -0.32636000
O       18.02992000      11.14029000      10.72087000      -0.27783000      -0.20431000      -0.07993800
O        4.74378000       9.26869000       8.90199000      -0.00830000       0.35286200       0.35321000
O       11.70360000       9.21112000       8.95553000      -0.13953900       0.33150300       0.34131800
O       18.03295000       9.28126000       8.86425000      -0.27551300       0.07526500       0.20020600
17
Lattice="19.527634 0.0 0.0 0.0 20.0 0.0 0.0 0.0 20.0" Properties=species:S:1:pos:R:3:forces:R:3 energy=-147.42476758 stress="-33.46855 0.09182 -0.08195 0.09182 -0.00472 0.31874 -0.08195 0.31874 -0.01041" pbc="T T T"
Zr       3.15926000      10.19753000       9.81173000      -0.27796200       0.00763400      -0.00536300
Zr      10.20872000      10.10152000       9.90428000      -0.32105000      -0.16026000       0.16505600
Zr      16.52009000      10.15747000       9.84345000      -2.35727800       0.07719600      -0.06761100
Zr       0.00580000      10.22388000       9.78154000       2.14276000       0.01375500      -0.00684000
Zr       6.24315000      10.14834000       9.86037000       0.48324900      -0.19336900       0.19853000
Zr      13.32425000      10.13110000       9.87190000      -0.13329400       0.01117700      -0.00762100
O        1.60521000      11.11307000       8.89329000      -0.01531400       0.02495700      -0.02482100
O       14.87484000      11.03404000       8.96561000       0.34130900       0.08035900      -0.07993200
O        1.56152000       9.30868000      10.70030000      -0.01342000      -0.02303100       0.02099400
O        8.20958000       9.70111000      10.30695000       0.00193500       0.41781100      -0.42010400
O       14.90342000       9.24883000      10.75467000       0.31137900      -0.07306400       0.07315600
O        4.74388000      11.09100000      10.72289000      -0.24473500       0.15497000       0.17307200
O       11.69845000      11.03451000      10.77566000       0.46913100       0.07330700       0.10267200
O       18.02992000      11.14029000      10.72087000      -0.30681300      -0.15157100      -0.02975200
O        4.74338000       9.28572000       8.91903000      -0.24530100      -0.17809200      -0.16199700
O       11.69687000       9.22712000       8.97200000       0.46950700      -0.10704000      -0.07696900
O       18.03295000       9.28126000       8.86425000      -0.30410200       0.02526000       0.14753000
17
Lattice="19.527634 0.0 0.0 0.0 20.0 0.0 0.0 0.0 20.0" Properties=species:S:1:pos:R:3:forces:R:3 energy=-147.42576936 stress="-34.01825 0.09287 -0.08302 0.09287 -0.32702 0.30087 -0.08302 0.30087 -0.33186" pbc="T T T"
Zr       3.15880000      10.19752000       9.81176000      -0.24133400       0.00690000      -0.00510400
Zr      10.20584000      10.10227000       9.90356000      -0.22462700      -0.16121100       0.16475600
Zr      16.52009000      10.15747000       9.84345000      -2.43214500       0.07731400      -0.06747500
Zr       0.00580000      10.22388000       9.78154000       2.15244600       0.01315900      -0.00593500
Zr       6.24559000      10.14923000       9.85950000       0.38420800      -0.19377900       0.19851500
Zr      13.32139000      10.13106000       9.87195000      -0.06071200       0.01104600      -0.00807100
O        1.60541000      11.11441000       8.89196000      -0.01980300      -0.00407100       0.00422600
O       14.87268000      11.03613000       8.96351000       0.35752300       0.02553100      -0.02470000
O        1.56168000       9.30735000      10.70165000      -0.01667500       0.00763000      -0.00969000
O        8.20960000       9.69934000      10.30872000       0.00134900       0.41759900      -0.42072400
O       14.90151000       9.24672000      10.75679000       0.32654800      -0.02038700       0.02024400
O        4.74393000      11.09249000      10.72437000      -0.22253400       0.10707700       0.12403400
O       11.69904000      11.03594000      10.77705000       0.41169600       0.03247200       0.06099000
O       18.02992000      11.14029000      10.72087000      -0.30479600      -0.15645100      -0.03400100
O        4.74342000       9.28422000       8.91752000      -0.22210700      -0.12839600      -0.11388000
O       11.69747000       9.22571000       8.97055000       0.41308300      -0.06419500      -0.03586000
O       18.03295000       9.28126000       8.86425000      -0.30212000       0.02976100       0.15267400
17
Lattice="19.527634 0.0 0.0 0.0 20.0 0.0 0.0 0.0 20.0" Properties=species:S:1:pos:R:3:forces:R:3 energy=-147.47023737 stress="-32.83105 0.03549 -0.03095 0.03549 0.31314 -0.37648 -0.03095 -0.37648 0.30687" pbc="T T T"
Zr       3.14902000      10.19788000       9.81141000       0.06491800       0.00459300      -0.00836900
Zr      10.20566000      10.09193000       9.91398000       0.25674400      -0.08624600       0.08652800
Zr      16.52009000      10.15747000       9.84345000      -2.16692600       0.06823400      -0.05877000
Zr       0.00580000      10.22388000       9.78154000       1.89639600       0.01704000      -0.01086400
Zr       6.25496000      10.13682000       9.87207000      -0.39638400      -0.05424000       0.05124500
Zr      13.32889000      10.13171000       9.87138000       0.02793100       0.00839400      -0.00720800
O        1.60376000      11.10937000       8.89699000      -0.05134800       0.15350600      -0.15209300
O       14.89746000      11.02976000       8.96996000       0.10357000       0.19976700      -0.19923400
O        1.56031000       9.31254000      10.69628000      -0.04173300      -0.14574200       0.14543700
O        8.20957000       9.72557000      10.28235000       0.11140200       0.26694900      -0.26861700
O       14.92391000       9.25340000      10.75005000       0.09014000      -0.18376000       0.18139800
O        4.73323000      11.09215000      10.72488000      -0.00896200       0.02387100       0.09981700
O       11.71641000      11.03228000      10.77490000       0.25691300       0.03297800       0.08489100
O       18.02992000      11.14029000      10.72087000      -0.19662800      -0.12075800      -0.00264100
O        4.73276000       9.28358000       8.91758000      -0.00815200      -0.09837300      -0.02398700
O       11.71489000       9.22778000       8.97412000       0.25582400      -0.08480800      -0.03460000
O       18.03295000       9.28126000       8.86425000      -0.19370600      -0.00140500       0.11706700
17
Lattice="19.527634 0.0 0.0 0.0 20.0 0.0 0.0 0.0 20.0" Properties=species:S:1:pos:R:3:forces:R:3 energy=-147.47340431 stress="-32.35879 0.01748 -0.01484 0.01748 0.54913 -0.60619 -0.01484 -0.60619 0.54528" pbc="T T T"
Zr       3.14568000      10.19800000       9.81129000       0.16849500       0.00383300      -0.00980300
Zr      10.20560000      10.08839000       9.91755000       0.42152900      -0.06099600       0.05949300
Zr      16.52009000      10.15747000       9.84345000      -2.05932300       0.06449800      -0.05543200
Zr       0.00580000      10.22388000       9.78154000       1.80530700       0.01829300      -0.01274100
Zr       6.25817000      10.13257000       9.87637000      -0.66762100      -0.00665900       0.00207600
Zr      13.33146000      10.13194000       9.87119000       0.06382800       0.00776500      -0.00799300
O        1.60320000      11.10765000       8.89872000      -0.06194300       0.20939300      -0.20797800
O       14.90594000      11.02757000       8.97216000       0.00791100       0.26225900      -0.26239200
O        1.55984000       9.31431000      10.69444000      -0.05145400      -0.20026900       0.20010900
O        8.20956000       9.73454000      10.27332000       0.15675800       0.21800900      -0.21908900
O       14.93157000       9.25569000      10.74775000       0.00008400      -0.24474800       0.24373200
O        4.72957000      11.09204000      10.72506000       0.06236000      -0.00264300       0.09309900
O       11.72235000      11.03103000      10.77417000       0.20322500       0.03641900       0.09671400
O       18.02992000      11.14029000      10.72087000      -0.15934900      -0.10804300       0.00826500
O        4.72912000       9.28336000       8.91760000       0.06471100      -0.09052700       0.00485200
O       11.72085000       9.22849000       8.97534000       0.20182300      -0.09407800      -0.03703100
O       18.03295000       9.28126000       8.86425000      -0.15634100      -0.01250600       0.10411900
17
Lattice="19.527634 0.0 0.0 0.0 20.0 0.0 0.0 0.0 20.0" Properties=species:S:1:pos:R:3:forces:R:3 energy=-147.51196713 stress="-31.4801 0.01369 -0.00755 0.01369 0.33374 -0.31216 -0.00755 -0.31216 0.32764" pbc="T T T"
Zr       3.14510000      10.19837000       9.81072000      -0.12517600       0.00224800      -0.00603600
Zr      10.21982000      10.07965000       9.92629000       0.41242600      -0.03096800       0.02885000
Zr      16.52009000      10.15747000       9.84345000      -1.91334800       0.06128000      -0.05208000
Zr       0.00580000      10.22388000       9.78154000       1.70976600       0.01875800      -0.01290700
Zr       6.24153000      10.12434000       9.88454000      -0.37455100      -0.00582700       0.00287800
Zr      13.33847000      10.13262000       9.87055000       0.30497700       0.00586700      -0.00678600
O        1.60003000      11.11151000       8.89490000       0.02115700       0.13213700      -0.13125400
O       14.92218000      11.03238000       8.96740000      -0.15392100       0.19753200      -0.19713100
O        1.55720000       9.31085000      10.69777000       0.04008500      -0.12124500       0.11952400
O        8.21486000       9.75886000      10.24888000       0.11432400       0.21153200      -0.21255600
O       14.94601000       9.25168000      10.75169000      -0.15809900      -0.17549600       0.17463100
O        4.72480000      11.09173000      10.72855000       0.02211500       0.00562200       0.10510300
O       11.74045000      11.02991000      10.77607000       0.13483400       0.02986200       0.11040100
O       18.02992000      11.14029000      10.72087000      -0.09763500      -0.09501300       0.01912200
O        4.72445000       9.27987000       8.91780000       0.02507000      -0.10458300      -0.00427600
O       11.73894000       9.22663000       8.97638000       0.13252900      -0.10892400      -0.02895200
O       18.03295000       9.28126000       8.86425000      -0.09455500      -0.02278100       0.09147200
17
Lattice="19.527634 0.0 0.0 0.0 20.0 0.0 0.0 0.0 20.0" Properties=species:S:1:pos:R:3:forces:R:3 energy=-147.54419726 stress="-29.24766 -0.01533 0.01987 -0.01533 -0.16951 0.44897 0.01987 0.44897 -0.17503" pbc="T T T"
Zr       3.14355000      10.19934000       9.80922000      -0.92210600       0.00293800      -0.00172100
Zr      10.25802000      10.05616000       9.94977000       0.32100900       0.03331500      -0.03568600
Zr      16.52009000      10.15747000       9.84345000      -1.47371600       0.05055700      -0.04209900
Zr       0.00580000      10.22388000       9.78154000       1.44951200       0.02039000      -0.01480200
Zr       6.19679000      10.10224000       9.90650000       0.51659200      -0.01441000       0.01432200
Zr      13.35729000      10.13445000       9.86885000       0.94835300       0.00228300      -0.00610200
O        1.59151000      11.12191000       8.88463000       0.23831100      -0.07025900       0.06937800
O       14.96584000      11.04529000       8.95461000      -0.59645400       0.04907600      -0.04766600
O        1.55012000       9.30155000      10.70674000       0.28503200       0.08854500      -0.09184300
O        8.22912000       9.82420000      10.18318000       0.01076400       0.20063200      -0.20122000
O       14.98482000       9.24090000      10.76228000      -0.59802500      -0.01200400       0.01189300
O        4.71197000      11.09092000      10.73794000      -0.08623500       0.03092900       0.13707600
O       11.78909000      11.02689000      10.78118000      -0.07441300       0.01033800       0.14583000
O       18.02992000      11.14029000      10.72087000       0.06845200      -0.06018300       0.04638300
O        4.71190000       9.27050000       8.91833000      -0.08288800      -0.13953600      -0.03252600
O       11.78755000       9.22163000       8.97918000      -0.07589400      -0.14307100      -0.00781700
O       18.03295000       9.28126000       8.86425000       0.07170900      -0.04954000       0.05660000
17
Lattice="19.527634 0.0 0.0 0.0 20.0 0.0 0.0 0.0 20.0" Properties=species:S:1:pos:R:3:forces:R:3 energy=-147.56043425 stress="-28.98269 -0.0187 0.02255 -0.0187 -0.35477 0.4114 0.02255 0.4114 -0.35854" pbc="T T T"
Zr       3.13667000      10.19955000       9.80890000      -0.71629500      -0.00105200       0.00234100
Zr      10.26799000      10.05167000       9.95425000       0.30026800       0.04384400      -0.04636800
Zr      16.52009000      10.15747000       9.84345000      -1.38682500       0.05253100      -0.04403200
Zr       0.00580000      10.22388000       9.78154000       1.39854700       0.02161600      -0.01605500
Zr       6.19146000      10.09769000       9.91103000       0.52764600      -0.00391500       0.00503500
Zr      13.36783000      10.13484000       9.86846000       0.77170600       0.00009500      -0.00423100
O        1.59150000      11.12351000       8.88306000       0.18512300      -0.08257600       0.08225700
O       14.97038000      11.04824000       8.95169000      -0.57387300       0.02078300      -0.01931300
O        1.55073000       9.30030000      10.70789000       0.23459700       0.10309300      -0.10627400
O        8.23207000       9.83879000      10.16852000       0.01766200       0.19506800      -0.19556300
O       14.98838000       9.23865000      10.76450000      -0.57530400       0.01324800      -0.01311700
O        4.70877000      11.09097000      10.74081000      -0.11512500      -0.00849100       0.10195100
O       11.79835000      11.02635000      10.78325000      -0.06152900      -0.01131700       0.12995800
O       18.02992000      11.14029000      10.72087000       0.08239900      -0.06426600       0.04277500
O        4.70879000       9.26762000       8.91821000      -0.11265400      -0.10662900       0.00689300
O       11.79681000       9.21960000       8.97969000      -0.06202500      -0.12634700       0.01297200
O       18.03295000       9.28126000       8.86425000       0.08568100      -0.04568700       0.06077100
17
Lattice="19.527634 0.0 0.0 0.0 20.0 0.0 0.0 0.0 20.0" Properties=species:S:1:pos:R:3:forces:R:3 energy=-147.58495503 stress="-28.30956 -0.0285 0.03109 -0.0285 -0.87569 0.27378 0.03109 0.27378 -0.87981" pbc="T T T"
Zr       3.11604000      10.20020000       9.80795000      -0.07782700      -0.01465800       0.01825600
Zr      10.29793000      10.03819000       9.96768000       0.20784000       0.07714400      -0.07861200
Zr      16.52009000      10.15747000       9.84345000      -1.12082800       0.05766900      -0.04943100
Zr       0.00580000      10.22388000       9.78154000       1.24798200       0.02458300      -0.01944800
Zr       6.17547000      10.08402000       9.92461000       0.59113400       0.02531200      -0.02420000
Zr      13.39946000      10.13599000       9.86730000       0.21749800      -0.00751100       0.00376800
O        1.59144000      11.12829000       8.87834000       0.01892900      -0.11418000       0.11106600
O       14.98402000      11.05709000       8.94294000      -0.50086600      -0.05330900       0.05463900
O        1.55253000       9.29657000      10.71134000       0.07395700       0.14107100      -0.14467600
O        8.24092000       9.88256000      10.12453000       0.02861900       0.17518000      -0.17279400
O       14.99906000       9.23188000      10.77116000      -0.49932500       0.08665700      -0.08751300
O        4.69917000      11.09114000      10.74941000      -0.19735700      -0.12532900       0.00205900
O       11.82616000      11.02475000      10.78946000      -0.02595100      -0.08222200       0.07498600
O       18.02992000      11.14029000      10.72087000       0.12565200      -0.07563000       0.03246500
O        4.69944000       9.25897000       8.91784000      -0.19489700      -0.00555600       0.12376100
O       11.82456000       9.21353000       8.98121000      -0.02356900      -0.07417400       0.08368500
O       18.03295000       9.28126000       8.86425000       0.12900700      -0.03504600       0.07198900
17
Lattice="19.527634 0.0 0.0 0.0 20.0 0.0 0.0 0.0 20.0" Properties=species:S:1:pos:R:3:forces:R:3 energy=-147.59716343 stress="-28.30832 -0.00934 0.01172 -0.00934 -0.77606 0.16224 0.01172 0.16224 -0.78234" pbc="T T T"
Zr       3.11579000      10.20001000       9.80819000       0.02774700      -0.01238300       0.01480100
Zr      10.29938000      10.03948000       9.96637000       0.20484000       0.07263800      -0.07360900
Zr      16.52009000      10.15747000       9.84345000      -1.15343300       0.06402200      -0.05568500
Zr       0.00580000      10.22388000       9.78154000       1.30004500       0.02666700      -0.02175300
Zr       6.18269000      10.08473000       9.92392000       0.36416500       0.03689400      -0.03683900
Zr      13.40097000      10.13587000       9.86737000       0.10292900      -0.00676000       0.00385900
O        1.59166000      11.12684000       8.87975000      -0.02345100      -0.07822200       0.07555200
O       14.97790000      11.05621000       8.94383000      -0.40353100      -0.03969700       0.04075900
O        1.55332000       9.29829000      10.70959000       0.02476800       0.09905300      -0.10178900
O        8.24097000       9.88322000      10.12391000       0.04897300       0.16828300      -0.16633800
O       14.99304000       9.23307000      10.76996000      -0.40270900       0.06578000      -0.06572200
O        4.69722000      11.08971000      10.74917000      -0.11940200      -0.13427600      -0.00179700
O       11.82501000      11.02387000      10.79012000      -0.01604100      -0.07030900       0.07850100
O       18.02992000      11.14029000      10.72087000       0.08614100      -0.08079200       0.02924300
O        4.69750000       9.25917000       8.91926000      -0.11670500      -0.00102200       0.13311900
O       11.82344000       9.21287000       8.98212000      -0.01383900      -0.07799400       0.07062200
O       18.03295000       9.28126000       8.86425000       0.08950500      -0.03188000       0.07707400
17
Lattice="19.527634 0.0 0.0 0.0 20.0 0.0 0.0 0.0 20.0" Properties=species:S:1:pos:R:3:forces:R:3 energy=-147.61144364 stress="-28.18277 0.03984 -0.03502 0.03984 -0.46727 -0.15164 -0.03502 -0.15164 -0.47229" pbc="T T T"
Zr       3.11508000      10.19949000       9.80885000       0.31957400      -0.00617600       0.00332800
Zr      10.30342000      10.04308000       9.96273000       0.19574100       0.05887700      -0.05948900
Zr      16.52009000      10.15747000       9.84345000      -1.23414900       0.08047800      -0.07254500
Zr       0.00580000      10.22388000       9.78154000       1.44634900       0.03188800      -0.02826900
Zr       6.20282000      10.08670000       9.92199000      -0.25799100       0.07005400      -0.07109200
Zr      13.40518000      10.13554000       9.86759000      -0.23645200      -0.00336100       0.00212500
O        1.59226000      11.12281000       8.88368000      -0.14565400       0.02152900      -0.02219200
O       14.96083000      11.05376000       8.94631000      -0.12224900       0.00877700      -0.00916200
O        1.55552000       9.30309000      10.70470000      -0.11837900      -0.02162000       0.02081000
O        8.24113000       9.88504000      10.12218000       0.11973100       0.14893500      -0.14724600
O       14.97628000       9.23640000      10.76661000      -0.12079300      -0.00100300       0.00102400
O        4.69177000      11.08571000      10.74850000       0.08883200      -0.15025100      -0.00619800
O       11.82181000      11.02139000      10.79197000       0.00890900      -0.03463700       0.09043500
O       18.02992000      11.14029000      10.72087000      -0.02408200      -0.09556200       0.02016400
O        4.69211000       9.25973000       8.92322000       0.09024200       0.00691300       0.15408200
O       11.82032000       9.21103000       8.98464000       0.01106500      -0.09120600       0.03327200
O       18.03295000       9.28126000       8.86425000      -0.02069500      -0.02363600       0.09095300
17
Lattice="19.527634 0.0 0.0 0.0 20.0 0.0 0.0 0.0 20.0" Properties=species:S:1:pos:R:3:forces:R:3 energy=-147.61801235 stress="-27.91873 0.05248 -0.0428 0.05248 -0.3218 -0.00246 -0.0428 -0.00246 -0.32915" pbc="T T T"
Zr       3.12060000      10.19927000       9.80905000       0.07454600      -0.00306600      -0.00019000
Zr      10.30778000      10.04491000       9.96088000       0.05724200       0.04536000      -0.04549300
Zr      16.52009000      10.15747000       9.84345000      -1.29556800       0.08658000      -0.07830100
Zr       0.00580000      10.22388000       9.78154000       1.50934400       0.03231200      -0.02853500
Zr       6.20263000      10.08837000       9.92031000      -0.13245300       0.05515600      -0.05416200
Zr      13.40190000      10.13540000       9.86768000      -0.12605700      -0.00282100       0.00318800
O        1.58981000      11.12231000       8.88414000      -0.08531000       0.01500200      -0.01614800
O       14.95494000      11.05338000       8.94669000      -0.05992300       0.00623700      -0.00657400
O        1.55389000       9.30375000      10.70400000      -0.06284100      -0.02081900       0.02052900
O        8.24328000       9.88808000      10.11919000       0.10834300       0.15386700      -0.15240600
O       14.97048000       9.23711000      10.76590000      -0.06248300      -0.00676900       0.00337900
O        4.69216000      11.08218000      10.74825000       0.09572300      -0.08705500       0.04176600
O       11.82127000      11.02024000      10.79398000       0.00731700      -0.00612400       0.10439700
O       18.02992000      11.14029000      10.72087000      -0.06839200      -0.09601900       0.02096700
O        4.69254000       9.25998000       8.92682000       0.09618800      -0.04192200       0.09037900
O       11.81984000       9.20902000       8.98579000       0.00932200      -0.10563400       0.00564300
O       18.03295000       9.28126000       8.86425000      -0.06499600      -0.02428400       0.09156000
17
Lattice="19.527634 0.0 0.0 0.0 20.0 0.0 0.0 0.0 20.0" Properties=species:S:1:pos:R:3:forces:R:3 energy=-147.62056425 stress="-27.45908 0.06872 -0.05688 0.06872 -0.09367 0.21734 -0.05688 0.21734 -0.10161" pbc="T T T"
Zr       3.12922000      10.19892000       9.80937000      -0.31820100       0.00047400      -0.00291800
Zr      10.31458000      10.04777000       9.95799000      -0.16210100       0.02493500      -0.02526800
Zr      16.52009000      10.15747000       9.84345000      -1.38464500       0.09566500      -0.08721200
Zr       0.00580000      10.22388000       9.78154000       1.60265600       0.03251600      -0.02885600
Zr       6.20234000      10.09099000       9.91768000       0.06292200       0.03240800      -0.02937800
Zr      13.39677000      10.13519000       9.86781000       0.05374900      -0.00157800       0.00451700
O        1.58598000      11.12153000       8.88486000       0.01039100       0.00717900      -0.00965800
O       14.94573000      11.05279000       8.94728000       0.03417100       0.00476500      -0.00537000
O        1.55136000       9.30479000      10.70291000       0.02411100      -0.02100200       0.01966800
O        8.24666000       9.89283000      10.11452000       0.08867900       0.15846700      -0.15629900
O       14.96142000       9.23822000      10.76479000       0.03007900      -0.01640500       0.01428800
O        4.69277000      11.07665000      10.74785000       0.11314400       0.01475700       0.12043800
O       11.82043000      11.01843000      10.79712000       0.00446700       0.04079000       0.12712900
O       18.02992000      11.14029000      10.72087000      -0.13886100      -0.09736600       0.02187500
O        4.69320000       9.26036000       8.93244000       0.10999000      -0.12124100      -0.01440700
O       11.81908000       9.20586000       8.98757000       0.00490800      -0.12903400      -0.04130900
O       18.03295000       9.28126000       8.86425000      -0.13545700      -0.02533100       0.09275900
17
Lattice="19.527634 0.0 0.0 0.0 20.0 0.0 0.0 0.0 20.0" Properties=species:S:1:pos:R:3:forces:R:3 energy=-147.62082645 stress="-27.57578 0.06587 -0.05278 0.06587 -0.15091 0.16325 -0.05278 0.16325 -0.15997" pbc="T T T"
Zr       3.12716000      10.19900000       9.80930000      -0.22732100      -0.00059200      -0.00308800
Zr      10.31296000      10.04709000       9.95868000      -0.10882900       0.02986100      -0.03001700
Zr      16.52009000      10.15747000       9.84345000      -1.36281300       0.09340800      -0.08510400
Zr       0.00580000      10.22388000       9.78154000       1.57992200       0.03231100      -0.02872800
Zr       6.20241000      10.09036000       9.91830000       0.01623400       0.03778600      -0.03547600
Zr      13.39799000      10.13524000       9.86778000       0.01323700      -0.00231400       0.00444900
O        1.58689000      11.12172000       8.88469000      -0.01045500       0.00913800      -0.01139100
O       14.94793000      11.05293000       8.94714000       0.01091400       0.00521300      -0.00586300
O        1.55196000       9.30454000      10.70317000       0.00398000      -0.02073900       0.01906200
O        8.24585000       9.89170000      10.11563000       0.09372000       0.15699000      -0.15450800
O       14.96358000       9.23795000      10.76505000       0.00586000      -0.01415800       0.01156500
O        4.69262000      11.07797000      10.74794000       0.10892000      -0.00839600       0.10144500
O       11.82063000      11.01886000      10.79637000       0.00435200       0.02953700       0.12215200
O       18.02992000      11.14029000      10.72087000      -0.12209900      -0.09730900       0.02158800
O        4.69305000       9.26027000       8.93110000       0.10732900      -0.10201700       0.01137000
O       11.81926000       9.20661000       8.98714000       0.00574600      -0.12359800      -0.03008100
O       18.03295000       9.28126000       8.86425000      -0.11869600      -0.02512300       0.09262400
17
Lattice="19.527634 0.0 0.0 0.0 20.0 0.0 0.0 0.0 20.0" Properties=species:S:1:pos:R:3:forces:R:3 energy=-147.62461768 stress="-27.62716 0.07349 -0.06361 0.07349 -0.23333 0.07924 -0.06361 0.07924 -0.23925" pbc="T T T"
Zr       3.12493000      10.19888000       9.80933000      -0.10942400      -0.00858400       0.00661300
Zr      10.31275000      10.04867000       9.95709000      -0.07678600       0.02668100      -0.02719900
Zr      16.52009000      10.15747000       9.84345000      -1.42025200       0.09423800      -0.08603900
Zr       0.00580000      10.22388000       9.78154000       1.53720300       0.03009100      -0.02665300
Zr       6.20268000      10.09203000       9.91668000       0.03871600       0.02869100      -0.02574200
Zr      13.39664000      10.13513000       9.86792000      -0.00230800      -0.00774400       0.00970700
O        1.58543000      11.12167000       8.88467000       0.00303700       0.01232100      -0.01439300
O       14.94521000      11.05286000       8.94720000       0.05417600       0.00111800      -0.00151400
O        1.55124000       9.30442000      10.70324000       0.01442500      -0.02239300       0.02096400
O        8.24899000       9.89667000      10.11074000       0.06416200       0.15315400      -0.15225100
O       14.96080000       9.23800000      10.76495000       0.04981500      -0.01117000       0.01001800
O        4.69521000      11.07601000      10.75004000       0.04941200      -0.01072200       0.08070200
O       11.82045000      11.01893000      10.80006000      -0.00150600       0.00175800       0.08214300
O       18.02992000      11.14029000      10.72087000      -0.12435100      -0.09948200       0.01911800
O        4.69562000       9.25815000       8.93316000       0.04719700      -0.08227200       0.01106800
O       11.81915000       9.20289000       8.98706000      -0.00257900      -0.08319200      -0.00147000