18
Lattice="18.527634 0.0 0.0 0.0 20.0 0.0 0.0 0.0 20.0" Properties=species:S:1:pos:R:3:forces:R:3 energy=-159.39574088 stress="-26.45295 -0.01002 0.00215 -0.01002 -4.23167 0.00049 0.00215 0.00049 -4.23046" pbc="T T T"
Zr       3.00567000      10.00064000      10.00040000       3.00051400       0.00193300      -0.00275500
Zr       9.26483000      10.00379000      10.00062000       0.00035100      -0.00079900      -0.00053200
Zr      15.52396000      10.00197000       9.99955000      -2.99931100      -0.00048900       0.00084500
Zr       0.00102000       9.99863000       9.99839000      -0.00000300       0.00021200       0.00013800
Zr       6.17689000      10.00369000       9.99894000      -0.57685800      -0.00204000       0.00283400
Zr      12.35276000      10.00287000      10.00023000       0.57721900       0.00008100       0.00036600
O        1.50353000      10.93151000       9.06921000       0.14961300      -0.11300900       0.11246900
O        7.72148000      10.93671000       9.07042000       0.04682300      -0.36408300       0.36141400
O       13.89670000      10.93490000       9.06999000       0.64333600      -0.57713700       0.57497600
O        1.50337000       9.06756000      10.92965000       0.15005400       0.11300500      -0.11318400
O        7.72011000       9.07142000      10.92949000       0.04753200       0.36385000      -0.36228900
O       13.89662000       9.07028000      10.93007000       0.64467000       0.57609500      -0.57568100
O        4.63263000      10.93217000      10.93190000      -0.64281100      -0.57515200      -0.57642300
O       10.80941000      10.93313000      10.93288000      -0.04928600      -0.36196100      -0.36361100
O       17.02806000      10.93026000      10.93092000      -0.15376400      -0.11092900      -0.11149300
O        4.63330000       9.07214000       9.06739000      -0.64423500       0.57357300       0.57671300
O       10.80832000       9.07315000       9.06842000      -0.04587400       0.36417700       0.36251200
O       17.02440000       9.07012000       9.06684000      -0.14796900       0.11267300       0.11369900
18
Lattice="18.527634 0.0 0.0 0.0 20.0 0.0 0.0 0.0 20.0" Properties=species:S:1:pos:R:3:forces:R:3 energy=-159.55280897 stress="-22.37018 -0.00997 0.00071 -0.00997 -0.40018 0.00206 0.00071 0.00206 -0.39869" pbc="T T T"
Zr       3.00567000      10.00064000      10.00040000       2.21340000       0.00147500      -0.00242400
Zr       9.26485000      10.00375000      10.00059000      -0.00087700       0.00039100      -0.00105200
Zr      15.52396000      10.00197000       9.99955000      -2.21194900      -0.00044000       0.00041900
Zr       0.00102000       9.99863000       9.99839000      -0.00020000       0.00037200       0.00012900
Zr       6.14907000      10.00359000       9.99908000       0.38146700       0.00051100      -0.00052000
Zr      12.38061000      10.00287000      10.00025000      -0.38109500       0.00097200       0.00063800
O        1.50353000      10.93151000       9.06921000       0.07324300      -0.05830500       0.05771900
O        7.72374000      10.91914000       9.08785000      -0.30389400      -0.03213300       0.03191200
O       13.92773000      10.90706000       9.09772000       0.41828600       0.07145400      -0.07383900
O        1.50337000       9.06756000      10.92965000       0.07360500       0.05831700      -0.05871400
O        7.72241000       9.08897000      10.91201000      -0.30152800       0.02957800      -0.02854900
O       13.92772000       9.09807000      10.90230000       0.41742800      -0.07362800       0.07266100
O        4.60162000      10.90442000      10.90409000      -0.41830800       0.07252600       0.07326900
O       10.80703000      10.91566000      10.91533000       0.30501300      -0.03010900      -0.03167700
O       17.02806000      10.93026000      10.93092000      -0.07780800      -0.05634700      -0.05686800
O        4.60222000       9.09981000       9.09521000      -0.41793700      -0.07332600      -0.07018600
O       10.80610000       9.09072000       9.08591000       0.30333000       0.03063900       0.02821600
O       17.02440000       9.07012000       9.06684000      -0.07217600       0.05805100       0.05886500
18
Lattice="18.527634 0.0 0.0 0.0 20.0 0.0 0.0 0.0 20.0" Properties=species:S:1:pos:R:3:forces:R:3 energy=-159.55322419 stress="-22.11316 -0.00933 -0.00025 -0.00933 -0.17428 0.00214 -0.00025 0.00214 -0.17263" pbc="T T T"
Zr       3.00567000      10.00064000      10.00040000       2.16461800       0.00156400      -0.00240600
Zr       9.26485000      10.00375000      10.00059000      -0.00091400       0.00057500      -0.00108300
Zr      15.52396000      10.00197000       9.99955000      -2.16308800      -0.00031500       0.00038600
Zr       0.00102000       9.99863000       9.99839000      -0.00017600       0.00050100       0.00012400
Zr       6.14756000      10.00359000       9.99909000       0.43483600       0.00061700      -0.00066000
Zr      12.38211000      10.00287000      10.00025000      -0.43465500       0.00053800       0.00074100
O        1.50353000      10.93151000       9.06921000       0.06857800      -0.05509500       0.05462100
O        7.72386000      10.91819000       9.08880000      -0.32396400      -0.01376000       0.01331900
O       13.92941000      10.90556000       9.09922000       0.40295700       0.10973200      -0.11252100
O        1.50337000       9.06756000      10.92965000       0.06893600       0.05535000      -0.05564500
O        7.72253000       9.08992000      10.91106000      -0.32147600       0.01095700      -0.01038000
O       13.92940000       9.09957000      10.90079000       0.40276700      -0.11261300       0.11168900
O        4.59994000      10.90292000      10.90258000      -0.40315100       0.11174000       0.11297000
O       10.80690000      10.91472000      10.91439000       0.32488700      -0.01223600      -0.01274200
O       17.02806000      10.93026000      10.93092000      -0.07309700      -0.05314000      -0.05378600
O        4.60054000       9.10130000       9.09671000      -0.40270500      -0.11125200      -0.10987500
O       10.80598000       9.09167000       9.08686000       0.32312100       0.01175500       0.00948700
O       17.02440000       9.07012000       9.06684000      -0.06747400       0.05508200       0.05576000
18
Lattice="18.527634 0.0 0.0 0.0 20.0 0.0 0.0 0.0 20.0" Properties=species:S:1:pos:R:3:forces:R:3 energy=-159.55911157 stress="-21.44809 -0.0116 -0.00145 -0.0116 0.42582 0.00083 -0.00145 0.00083 0.42814" pbc="T T T"
Zr       3.00567000      10.00064000      10.00040000       1.83001600       0.00186300      -0.00112500
Zr       9.26481000      10.00377000      10.00053000       0.00210500      -0.00097900       0.00002700
Zr      15.52396000      10.00197000       9.99955000      -1.82903100      -0.00102000       0.00061600
Zr       0.00102000       9.99863000       9.99839000      -0.00042700       0.00054400       0.00035000
Zr       6.16154000      10.00359000       9.99909000      -0.99089100      -0.00133700       0.00200600
Zr      12.36815000      10.00290000      10.00029000       0.98941500      -0.00064600      -0.00084500
O        1.50353000      10.93151000       9.06921000      -0.00232100      -0.01120300       0.01070500
O        7.70865000      10.91296000       9.09397000       0.08725000       0.09499400      -0.09797400
O       13.95712000      10.90368000       9.10094000      -0.22349800       0.12185100      -0.12340200
O        1.50337000       9.06756000      10.92965000      -0.00189300       0.01115000      -0.01161300
O        7.70745000       9.09501000      10.90602000       0.08813700      -0.09618000       0.09564300
O       13.95712000       9.10130000      10.89903000      -0.22274000      -0.12225200       0.12269900
O        4.57223000      10.90117000      10.90087000       0.22353300       0.12275600       0.12276100
O       10.82213000      10.90959000      10.90921000      -0.08954300       0.09691700       0.09656500
O       17.02806000      10.93026000      10.93092000      -0.00188900      -0.00930100      -0.00964300
O        4.57284000       9.10306000       9.09858000       0.22548600      -0.12288100      -0.12318600
O       10.82117000       9.09681000       9.09186000      -0.08738800      -0.09521600      -0.09539000
O       17.02440000       9.07012000       9.06684000       0.00367900       0.01094000       0.01180700
18
Lattice="18.527634 0.0 0.0 0.0 20.0 0.0 0.0 0.0 20.0" Properties=species:S:1:pos:R:3:forces:R:3 energy=-159.57360779 stress="-21.82092 -0.0107 0.00084 -0.0107 0.11737 0.0029 0.00084 0.0029 0.1198" pbc="T T T"
Zr       3.00567000      10.00064000      10.00040000       1.99038300       0.00125900      -0.00163500
Zr       9.26483000      10.00376000      10.00056000       0.00083500      -0.00073300      -0.00037600
Zr      15.52396000      10.00197000       9.99955000      -1.98896200      -0.00114900       0.00059800
Zr       0.00102000       9.99863000       9.99839000      -0.00022400       0.00006600       0.00034200
Zr       6.15515000      10.00359000       9.99909000      -0.34225800      -0.00061800       0.00076400
Zr      12.37453000      10.00289000      10.00027000       0.34092100      -0.00026000       0.00003700
O        1.50353000      10.93151000       9.06921000       0.03056700      -0.03188500       0.03103700
O        7.71561000      10.91536000       9.09161000      -0.10516000       0.04280700      -0.04450800
O       13.94445000      10.90454000       9.10015000       0.06056500       0.11210800      -0.11240500
O        1.50337000       9.06756000      10.92965000       0.03096200       0.03106200      -0.03180800
O        7.71435000       9.09269000      10.90833000      -0.10539200      -0.04373800       0.04225100
O       13.94444000       9.10051000      10.89984000       0.05974800      -0.11221400       0.11207600
O        4.58490000      10.90197000      10.90165000      -0.05955300       0.11252400       0.11358700
O       10.81516000      10.91194000      10.91158000       0.10472900       0.04320400       0.04329100
O       17.02806000      10.93026000      10.93092000      -0.03474000      -0.02996500      -0.02989200
O        4.58551000       9.10226000       9.09773000      -0.05828100      -0.11084700      -0.11238200
O       10.81422000       9.09446000       9.08957000       0.10500500      -0.04244800      -0.04313600
O       17.02440000       9.07012000       9.06684000      -0.02914700       0.03082800       0.03216200
18
Lattice="18.527634 0.0 0.0 0.0 20.0 0.0 0.0 0.0 20.0" Properties=species:S:1:pos:R:3:forces:R:3 energy=-159.58564005 stress="-22.41155 -0.01283 -0.00217 -0.01283 -0.37207 0.00188 -0.00217 0.00188 -0.3706" pbc="T T T"
Zr       3.00567000      10.00064000      10.00040000       1.81718300       0.00226300      -0.00115400
Zr       9.26485000      10.00373000      10.00053000      -0.00139900       0.00035100      -0.00052300
Zr      15.52396000      10.00197000       9.99955000      -1.81559400      -0.00080900       0.00054800
Zr       0.00102000       9.99863000       9.99839000      -0.00055600       0.00068700       0.00027800
Zr       6.14308000      10.00356000       9.99912000      -0.11929100      -0.00036200       0.00123000
Zr      12.38655000      10.00288000      10.00028000       0.12127500      -0.00058700      -0.00069100
O        1.50353000      10.93151000       9.06921000       0.02798000      -0.02908700       0.02876300
O        7.70758000      10.91609000       9.09078000      -0.05613200      -0.02902000       0.02632000
O       13.95326000      10.90909000       9.09555000      -0.00260900       0.04348400      -0.04427100
O        1.50337000       9.06756000      10.92965000       0.02837100       0.02942400      -0.02971800
O        7.70634000       9.09187000      10.90908000      -0.05402200       0.02581200      -0.02546100
O       13.95322000       9.09592000      10.90441000      -0.00110600      -0.04371900       0.04390300
O        4.57613000      10.90657000      10.90631000       0.00052000       0.04365300       0.04399100
O       10.82317000      10.91271000      10.91235000       0.05408600      -0.02738200      -0.02804900
O       17.02806000      10.93026000      10.93092000      -0.03160000      -0.02708600      -0.02773100
O        4.57680000       9.09774000       9.09316000       0.00224800      -0.04423000      -0.04394700
O       10.82223000       9.09371000       9.08877000       0.05666500       0.02743800       0.02670000
O       17.02440000       9.07012000       9.06684000      -0.02601900       0.02917000       0.02981300
18
Lattice="18.527634 0.0 0.0 0.0 20.0 0.0 0.0 0.0 20.0" Properties=species:S:1:pos:R:3:forces:R:3 energy=-159.58715479 stress="-22.70268 -0.011 -9e-05 -0.011 -0.62608 0.00242 -9e-05 0.00242 -0.62369" pbc="T T T"
Zr       3.00567000      10.00064000      10.00040000       1.73031700       0.00211300      -0.00084600
Zr       9.26487000      10.00372000      10.00052000      -0.00277400       0.00012100      -0.00036800
Zr      15.52396000      10.00197000       9.99955000      -1.72899300      -0.00129600       0.00059500
Zr       0.00102000       9.99863000       9.99839000      -0.00088500       0.00034300       0.00031200
Zr       6.13700000      10.00355000       9.99914000      -0.00270000       0.00099300       0.00143100
Zr      12.39260000      10.00288000      10.00029000       0.00616000      -0.00039200      -0.00075000
O        1.50353000      10.93151000       9.06921000       0.02591400      -0.02817700       0.02752500
O        7.70354000      10.91647000       9.09036000      -0.03168500      -0.06371800       0.06139300
O       13.95770000      10.91138000       9.09324000      -0.03107000       0.01218500      -0.01151200
O        1.50337000       9.06756000      10.92965000       0.02630100       0.02779100      -0.02843700
O        7.70231000       9.09147000      10.90946000      -0.02958300       0.06010700      -0.05970800
O       13.95764000       9.09361000      10.90671000      -0.02947800      -0.01026100       0.01032900
O        4.57172000      10.90888000      10.90865000       0.02928300       0.00995700       0.01059100
O       10.82721000      10.91311000      10.91274000       0.03060700      -0.06140400      -0.06174200
O       17.02806000      10.93026000      10.93092000      -0.02958200      -0.02613600      -0.02641400
O        4.57241000       9.09546000       9.09086000       0.03028000      -0.01122400      -0.01136100
O       10.82627000       9.09334000       9.08836000       0.03189800       0.06147600       0.06043000
O       17.02440000       9.07012000       9.06684000      -0.02400900       0.02752200       0.02853200
18
Lattice="18.527634 0.0 0.0 0.0 20.0 0.0 0.0 0.0 20.0" Properties=species:S:1:pos:R:3:forces:R:3 energy=-159.58807608 stress="-22.50431 -0.01069 -0.00317 -0.01069 -0.44366 -0.00032 -0.00317 -0.00032 -0.44142" pbc="T T T"
Zr       3.00567000      10.00064000      10.00040000       1.74534600       0.00152300      -0.00142400
Zr       9.26474000      10.00372000      10.00049000       0.00505600      -0.00091000      -0.00007700
Zr      15.52396000      10.00197000       9.99955000      -1.74309500      -0.00040300      -0.00009500
Zr       0.00102000       9.99863000       9.99839000      -0.00056900       0.00038500       0.00032800
Zr       6.13553000      10.00360000       9.99922000      -0.00961200      -0.00161000       0.00118700
Zr      12.39423000      10.00286000      10.00025000       0.00426800       0.00074600      -0.00034900
O        1.50353000      10.93151000       9.06921000       0.02815000      -0.02936400       0.02882400
O        7.70111000      10.91344000       9.09327000       0.00144300      -0.00074600      -0.00076100
O       13.95716000      10.91248000       9.09217000       0.00238800      -0.00365800       0.00461000
O        1.50337000       9.06756000      10.92965000       0.02856100       0.02910600      -0.02967500
O        7.69998000       9.09431000      10.90663000       0.00213500      -0.00044800       0.00054100
O       13.95717000       9.09260000      10.90772000       0.00348300       0.00395700      -0.00377200
O        4.57218000      10.90988000      10.90968000      -0.00233500      -0.00330700      -0.00327100
O       10.82958000      10.91020000      10.90981000      -0.00310800      -0.00103900      -0.00153500
O       17.02806000      10.93026000      10.93092000      -0.03202000      -0.02743000      -0.02765100
O        4.57292000       9.09441000       9.08980000      -0.00112700       0.00357800       0.00361400
O       10.82871000       9.09625000       9.09122000      -0.00252800       0.00078600      -0.00039400
O       17.02440000       9.07012000       9.06684000      -0.02643600       0.02883400       0.02990100
