18
Lattice="23.027634 0.0 0.0 0.0 20.0 0.0 0.0 0.0 20.0" Properties=species:S:1:pos:R:3:forces:R:3 energy=-155.01397805 stress="-18.66357 -0.00184 -0.00693 -0.00184 -3.50264 0.22207 -0.00693 0.22207 -3.50342" pbc="T T T"
Zr       3.00567000      10.00064000      10.00040000       2.76174000       0.33187300      -0.33236000
Zr      13.83486000       9.69265000      10.30776000       0.88966800       0.40787300      -0.40840700
Zr      20.02396000      10.00197000       9.99955000      -2.61350700      -0.01821800       0.01694800
Zr       0.00102000       9.99863000       9.99839000       0.09023300      -0.06549700       0.06451000
Zr       6.12611000      10.21228000       9.78968000      -1.31575500      -0.40859000       0.40825200
Zr      16.87930000       9.95792000      10.04329000       0.49507900      -0.10254000       0.10378200
O        1.50353000      10.93151000       9.06921000       0.12113100      -0.09778900       0.09596300
O       12.88019000      10.75839000       9.24175000       0.27084300      -0.30083300       0.30175600
O       18.41188000      10.91531000       9.08787000       0.60787700      -0.49064400       0.48918100
O        1.50337000       9.06756000      10.92965000      -0.13651100       0.02161200      -0.02120000
O        7.04367000       9.13021000      10.87101000      -0.20158500       0.27121700      -0.27121800
O       18.43872000       9.05167000      10.94885000       0.49367100       0.48391400      -0.48432000
O        4.58935000      11.04347000      10.81425000      -0.60348200      -0.49056100      -0.43734600
O       15.36854000      10.74291000      11.11381000      -0.02276500      -0.27710000      -0.27110700
O       21.52806000      10.93026000      10.93092000      -0.10719400      -0.04543100      -0.07171700
O        4.58952000       9.18824000       8.95713000      -0.60387400       0.43687000       0.49090400
O       15.36874000       8.88764000       9.25732000      -0.02193300       0.27091700       0.27674700
O       21.52440000       9.07012000       9.06684000      -0.10363500       0.07292400       0.04963300
18
Lattice="23.027634 0.0 0.0 0.0 20.0 0.0 0.0 0.0 20.0" Properties=species:S:1:pos:R:3:forces:R:3 energy=-155.17413838 stress="-9.0997 -0.472 0.46085 -0.472 1.31031 -0.00737 0.46085 -0.00737 1.30942" pbc="T T T"
Zr       3.00567000      10.00064000      10.00040000       1.69051900       0.27375200      -0.27381400
Zr      13.87778000       9.71233000      10.28806000      -0.01133700      -0.62760700       0.62734600
Zr      20.02396000      10.00197000       9.99955000      -1.82128300      -0.02839700       0.02697500
Zr       0.00102000       9.99863000       9.99839000       0.09344200      -0.06960900       0.06883000
Zr       6.06263000      10.19256000       9.80938000       0.07733700       0.30687000      -0.30695700
Zr      16.90319000       9.95297000      10.04830000       0.03736800      -0.01777300       0.01748700
O        1.50353000      10.93151000       9.06921000       0.07262600      -0.05262000       0.05084100
O       12.89325000      10.74388000       9.25631000      -0.29912700       0.49871000      -0.49758000
O       18.44121000      10.89164000       9.11147000       0.25580700       0.03398500      -0.03462600
O        1.50337000       9.06756000      10.92965000      -0.20583900      -0.02658400       0.02686900
O        7.03394000       9.14330000      10.85792000      -0.00342700      -0.19103000       0.18972400
O       18.46254000       9.07502000      10.92549000       0.30790000      -0.12079800       0.12006000
O        4.56023000      11.01981000      10.79315000      -0.81272600       0.16893500       0.40876200
O       15.36744000      10.72955000      11.10073000       0.76241600       0.29031900       0.06262300
O       21.52806000      10.93026000      10.93092000      -0.04943800       0.00129300      -0.02992700
O        4.56039000       9.20932000       8.98081000      -0.81189700      -0.40742400      -0.16896400
O       15.36768000       8.90071000       9.27067000       0.76375600      -0.06321500      -0.29046900
O       21.52440000       9.07012000       9.06684000      -0.04609700       0.03119200       0.00281800
18
Lattice="23.027634 0.0 0.0 0.0 20.0 0.0 0.0 0.0 20.0" Properties=species:S:1:pos:R:3:forces:R:3 energy=-155.17654864 stress="-10.19464 -0.41406 0.40586 -0.41406 0.77929 -0.00396 0.40586 -0.00396 0.77923" pbc="T T T"
Zr       3.00567000      10.00064000      10.00040000       1.81697900       0.28062700      -0.28066000
Zr      13.87321000       9.71024000      10.29015000       0.09482800      -0.51566900       0.51524200
Zr      20.02396000      10.00197000       9.99955000      -1.91447000      -0.02675800       0.02543200
Zr       0.00102000       9.99863000       9.99839000       0.09337400      -0.06907600       0.06835400
Zr       6.06938000      10.19466000       9.80728000      -0.08712000       0.23286400      -0.23276900
Zr      16.90065000       9.95350000      10.04777000       0.08881800      -0.02688100       0.02708200
O        1.50353000      10.93151000       9.06921000       0.07756800      -0.05747400       0.05576800
O       12.89186000      10.74542000       9.25476000      -0.23280800       0.41267500      -0.41185800
O       18.43809000      10.89416000       9.10896000       0.29809700      -0.02694600       0.02628000
O        1.50337000       9.06756000      10.92965000      -0.19860400      -0.02125400       0.02163100
O        7.03498000       9.14191000      10.85931000      -0.02666700      -0.14405200       0.14310900
O       18.46001000       9.07254000      10.92797000       0.33150600      -0.05260900       0.05172900
O        4.56333000      11.02232000      10.79540000      -0.78913200       0.08963500       0.31051500
O       15.36756000      10.73097000      11.10212000       0.67155300       0.22517600       0.02243800
O       21.52806000      10.93026000      10.93092000      -0.05583900      -0.00370100      -0.03445500
O        4.56348000       9.20707000       8.97829000      -0.78887800      -0.30978600      -0.09032100
O       15.36780000       8.89932000       9.26925000       0.67326900      -0.02256100      -0.22541300
O       21.52440000       9.07012000       9.06684000      -0.05247300       0.03579100       0.00789900
18
Lattice="23.027634 0.0 0.0 0.0 20.0 0.0 0.0 0.0 20.0" Properties=species:S:1:pos:R:3:forces:R:3 energy=-155.23708442 stress="-7.84316 1.22596 -1.23392 1.22596 0.18123 1.33989 -1.23392 1.33989 0.17942" pbc="T T T"
Zr       3.00567000      10.00064000      10.00040000       0.57520800       0.17246500      -0.17194800
Zr      13.89921000       9.69576000      10.30460000      -0.61792100       0.71290600      -0.71363300
Zr      20.02396000      10.00197000       9.99955000      -1.19301500      -0.06465900       0.06314500
Zr       0.00102000       9.99863000       9.99839000       0.12090200      -0.07127200       0.07081100
Zr       6.03344000      10.19577000       9.80617000       0.17579400      -0.22786700       0.22725700
Zr      16.91682000       9.94975000      10.05155000       0.44807700       0.08535300      -0.08580700
O        1.50353000      10.93151000       9.06921000      -0.00700200      -0.00182200       0.00017900
O       12.88742000      10.75763000       9.24262000       0.76922400      -0.71757300       0.71906700
O       18.46687000      10.88102000       9.12203000      -0.14265200       0.30625200      -0.30652500
O        1.50337000       9.06756000      10.92965000      -0.29065700      -0.07329800       0.07356000
O        7.02884000       9.14166000      10.85951000      -0.47279600       0.31150200      -0.31179300
O       18.48760000       9.08176000      10.91870000      -0.02149700      -0.37539100       0.37443500
O        4.51147000      11.01469000      10.79948000      -0.00029800       0.30727600       0.42294000
O       15.39872000      10.73490000      11.09663000       0.32585900       0.12564100       0.10357000
O       21.52806000      10.93026000      10.93092000      -0.00006600       0.04464800       0.00937000
O        4.51163000       9.20302000       8.98590000       0.00056700      -0.42280600      -0.30957400
O       15.39905000       8.90481000       9.26530000       0.32708900      -0.10339900      -0.12452300
O       21.52440000       9.07012000       9.06684000       0.00318300      -0.00795600      -0.04053000
18
Lattice="23.027634 0.0 0.0 0.0 20.0 0.0 0.0 0.0 20.0" Properties=species:S:1:pos:R:3:forces:R:3 energy=-155.24380828 stress="-8.47134 0.84926 -0.85761 0.84926 0.28213 1.02585 -0.85761 1.02585 0.28229" pbc="T T T"
Zr       3.00567000      10.00064000      10.00040000       0.89613500       0.19961400      -0.19938300
Zr      13.89294000       9.69925000      10.30112000      -0.46535300       0.44068200      -0.44135700
Zr      20.02396000      10.00197000       9.99955000      -1.37782600      -0.05484700       0.05323700
Zr       0.00102000       9.99863000       9.99839000       0.11436000      -0.07107200       0.07040600
Zr       6.04211000      10.19550000       9.80644000       0.10835400      -0.12111200       0.12123700
Zr      16.91292000       9.95065000      10.05064000       0.35979200       0.05863300      -0.05917200
O        1.50353000      10.93151000       9.06921000       0.01382500      -0.01590200       0.01410300
O       12.88849000      10.75468000       9.24555000       0.54966500      -0.46936900       0.47008500
O       18.45993000      10.88419000       9.11888000      -0.03077600       0.22072600      -0.22187400
O        1.50337000       9.06756000      10.92965000      -0.26804000      -0.06079200       0.06094200
O        7.03032000       9.14172000      10.85946000      -0.36535800       0.20568500      -0.20545600
O       18.48095000       9.07953000      10.92094000       0.06841700      -0.29402700       0.29352900
O        4.52398000      11.01653000      10.79849000      -0.19824800       0.25060000       0.39042500
O       15.39120000      10.73395000      11.09795000       0.40773400       0.14754200       0.08215400
O       21.52806000      10.93026000      10.93092000      -0.01381500       0.03238700      -0.00126200
O        4.52413000       9.20399000       8.98407000      -0.19756800      -0.38862100      -0.25148000
O       15.39152000       8.90349000       9.26625000       0.40923900      -0.08264500      -0.14774500
O       21.52440000       9.07012000       9.06684000      -0.01053700       0.00251700      -0.02838900
18
Lattice="23.027634 0.0 0.0 0.0 20.0 0.0 0.0 0.0 20.0" Properties=species:S:1:pos:R:3:forces:R:3 energy=-155.28493022 stress="-6.91519 -0.20372 0.19489 -0.20372 0.90848 -0.7279 0.19489 -0.7279 0.90608" pbc="T T T"
Zr       3.00567000      10.00064000      10.00040000       0.08305700       0.13137200      -0.13075100
Zr      13.89035000       9.70844000      10.29187000       1.18786000      -0.26984500       0.26875900
Zr      20.02396000      10.00197000       9.99955000      -0.93794700      -0.10361500       0.10159700
Zr       0.00102000       9.99863000       9.99839000       0.14621700      -0.07038000       0.06978700
Zr       6.02285000      10.19107000       9.81087000      -0.64600100       0.12166900      -0.12168600
Zr      16.93903000       9.95066000      10.05063000       0.03065400      -0.01342000       0.01275700
O        1.50353000      10.93151000       9.06921000      -0.05550000       0.02194300      -0.02379700
O       12.90901000      10.74275000       9.25755000      -0.16669500       0.28831500      -0.28768800
O       18.47774000      10.88488000       9.11809000      -0.12382000       0.30918800      -0.30830300
O        1.50337000       9.06756000      10.92965000      -0.32855100      -0.09184100       0.09180100
O        7.01064000       9.15035000      10.85082000      -0.11891000      -0.05336700       0.05328900
O       18.50221000       9.07311000      10.92731000      -0.01150400      -0.28226700       0.28148600
O        4.48105000      11.02216000      10.81788000       0.51137900       0.11984700       0.18397800
O       15.42932000      10.74286000      11.09781000      -0.05255200      -0.03488900      -0.07237600
O       21.52806000      10.93026000      10.93092000       0.01026700       0.05845600       0.02076700
O        4.48124000       9.18470000       8.97839000       0.51005700      -0.18429200      -0.12116100
O       15.42976000       8.90360000       9.25732000      -0.05151900       0.07269400       0.03609400
O       21.52440000       9.07012000       9.06684000       0.01350700      -0.01956600      -0.05455500
18
Lattice="23.027634 0.0 0.0 0.0 20.0 0.0 0.0 0.0 20.0" Properties=species:S:1:pos:R:3:forces:R:3 energy=-155.29037768 stress="-7.34296 0.07485 -0.08217 0.07485 0.71935 -0.28026 -0.08217 -0.28026 0.71624" pbc="T T T"
Zr       3.00567000      10.00064000      10.00040000       0.29512000       0.14876900      -0.14829700
Zr      13.89101000       9.70610000      10.29423000       0.76600600      -0.07187400       0.07089700
Zr      20.02396000      10.00197000       9.99955000      -1.05272400      -0.09091700       0.08895900
Zr       0.00102000       9.99863000       9.99839000       0.13782500      -0.07065800       0.07000400
Zr       6.02775000      10.19220000       9.80974000      -0.46226200       0.05663300      -0.05630700
Zr      16.93238000       9.95066000      10.05063000       0.11523600       0.00555200      -0.00589900
O        1.50353000      10.93151000       9.06921000      -0.03838400       0.01221500      -0.01409600
O       12.90379000      10.74579000       9.25449000       0.03203700       0.08042400      -0.08002800
O       18.47320000      10.88470000       9.11829000      -0.09851000       0.28516500      -0.28516800
O        1.50337000       9.06756000      10.92965000      -0.31378800      -0.08417300       0.08413900
O        7.01565000       9.14815000      10.85302000      -0.18407600       0.01534200      -0.01552000
O       18.49679000       9.07474000      10.92569000       0.01018000      -0.28528700       0.28442400
O        4.49198000      11.02073000      10.81294000       0.32992400       0.14748100       0.23051600
O       15.41961000      10.74059000      11.09784000       0.06025400       0.00682400      -0.03642400
O       21.52806000      10.93026000      10.93092000       0.00363700       0.05168900       0.01522400
O        4.49216000       9.18961000       8.97983000       0.33219000      -0.23023600      -0.14845600
O       15.42003000       8.90357000       9.25959000       0.06044900       0.03710000      -0.00616400
O       21.52440000       9.07012000       9.06684000       0.00688700      -0.01405100      -0.04780600
18
Lattice="23.027634 0.0 0.0 0.0 20.0 0.0 0.0 0.0 20.0" Properties=species:S:1:pos:R:3:forces:R:3 energy=-155.33539146 stress="-5.93913 0.3345 -0.33969 0.3345 -0.22397 -0.13101 -0.33969 -0.13101 -0.22199" pbc="T T T"
Zr       3.00567000      10.00064000      10.00040000       0.11754300       0.11538500      -0.11598000
Zr      13.92074000       9.70783000      10.29244000       0.44686300      -0.00694300       0.00700200
Zr      20.02396000      10.00197000       9.99955000      -0.95780100      -0.09404700       0.09191700
Zr       0.00102000       9.99863000       9.99839000       0.13059500      -0.06953300       0.06896500
Zr       5.99930000      10.19226000       9.80970000      -0.05564400       0.07394200      -0.07293100
Zr      16.95023000       9.95089000      10.05039000       0.13856600      -0.02224400       0.02222700
O        1.50353000      10.93151000       9.06921000      -0.02036300       0.00577100      -0.00746900
O       12.91544000      10.74303000       9.25730000       0.14261700      -0.01061700       0.01134000
O       18.47820000      10.89661000       9.10634000      -0.04835800       0.06631000      -0.06708600
O        1.50337000       9.06756000      10.92965000      -0.28536700      -0.06777900       0.06796800
O        6.99826000       9.15312000      10.84803000      -0.19026800       0.01746000      -0.01789800
O       18.50794000       9.05994000      10.94043000      -0.00458300      -0.01704800       0.01689900
O        4.48368000      11.02954000      10.83207000       0.19796000      -0.06288700       0.02142200
O       15.44130000      10.74537000      11.09629000       0.10141500       0.01607200      -0.04010700
O       21.52806000      10.93026000      10.93092000      -0.00814100       0.04091100       0.00498900
O        4.48397000       9.17055000       8.97095000       0.19895300      -0.01974800       0.06206600
O       15.44178000       8.90514000       9.25483000       0.10089200       0.03870200      -0.01646800
O       21.52440000       9.07012000       9.06684000      -0.00487900      -0.00370600      -0.03685700
18
Lattice="23.027634 0.0 0.0 0.0 20.0 0.0 0.0 0.0 20.0" Properties=species:S:1:pos:R:3:forces:R:3 energy=-155.34384389 stress="-5.01982 0.51381 -0.51547 0.51381 -0.82956 -0.03075 -0.51547 -0.03075 -0.82963" pbc="T T T"
Zr       3.00567000      10.00064000      10.00040000      -0.00608200       0.09382900      -0.09506400
Zr      13.94000000       9.70895000      10.29127000       0.23362200       0.03873700      -0.03795500
Zr      20.02396000      10.00197000       9.99955000      -0.89297900      -0.09607600       0.09384300
Zr       0.00102000       9.99863000       9.99839000       0.12505400      -0.06816500       0.06766600
Zr       5.98087000      10.19229000       9.80967000       0.21082700       0.08189200      -0.08028800
Zr      16.96179000       9.95104000      10.05023000       0.15184700      -0.03974700       0.04085100
O        1.50353000      10.93151000       9.06921000      -0.00927200       0.00194300      -0.00350900
O       12.92299000      10.74124000       9.25913000       0.21787300      -0.07090500       0.07150100
O       18.48144000      10.90432000       9.09860000      -0.01618000      -0.07134900       0.07211000
O        1.50337000       9.06756000      10.92965000      -0.26716500      -0.05647700       0.05682100
O        6.98699000       9.15635000      10.84480000      -0.20139400       0.02282700      -0.02433200
O       18.51515000       9.05035000      10.94998000      -0.01064500       0.14543200      -0.14436800
O        4.47831000      11.03526000      10.84446000       0.11742600      -0.19322400      -0.11514700
O       15.45534000      10.74846000      11.09529000       0.13057900       0.02286200      -0.03816400
O       21.52806000      10.93026000      10.93092000      -0.01673100       0.03430700      -0.00235700
O        4.47866000       9.15819000       8.96520000       0.11635900       0.11348700       0.19308700
O       15.45587000       8.90615000       9.25175000       0.13032200       0.03689800      -0.02456800
O       21.52440000       9.07012000       9.06684000      -0.01346100       0.00372700      -0.03012700
18
Lattice="23.027634 0.0 0.0 0.0 20.0 0.0 0.0 0.0 20.0" Properties=species:S:1:pos:R:3:forces:R:3 energy=-155.35998482 stress="-3.47399 0.25605 -0.26007 0.25605 -0.23847 -0.25908 -0.26007 -0.25908 -0.24013" pbc="T T T"
Zr       3.00567000      10.00064000      10.00040000       0.04654800       0.07363600      -0.07588500
Zr      13.96039000       9.71129000      10.28895000       0.11542700      -0.09964700       0.09878200
Zr      20.02396000      10.00197000       9.99955000      -0.73632000      -0.06151700       0.05922100
Zr       0.00102000       9.99863000       9.99839000       0.14827300      -0.06726400       0.06661400
Zr       5.98124000      10.19606000       9.80598000       0.11374200       0.21396500      -0.21379100
Zr      16.97456000       9.94930000      10.05202000      -0.04711700       0.02209500      -0.02266600
O        1.50353000      10.93151000       9.06921000      -0.02396300       0.00564200      -0.00733600
O       12.93677000      10.73709000       9.26332000       0.12124400       0.03935800      -0.03932700
O       18.48233000      10.90494000       9.09800000       0.05271100      -0.04728700       0.04766700
O        1.50337000       9.06756000      10.92965000      -0.27782300      -0.05632700       0.05655100
O        6.97211000       9.15901000      10.84206000      -0.02258400      -0.13591900       0.13651600
O       18.51830000       9.05218000      10.94817000       0.08389700       0.04620100      -0.04604600
O        4.48098000      11.02928000      10.84542000       0.05749700      -0.11875700      -0.08225900
O       15.46838000      10.75106000      11.09304000       0.18226000       0.07149200       0.00483600
O       21.52806000      10.93026000      10.93092000      -0.02787200       0.03390300      -0.00044700
O        4.48132000       9.15717000       8.97114000       0.05654500       0.08258200       0.11839100
O       15.46893000       8.90835000       9.24908000       0.18213600      -0.00386700      -0.07099800
O       21.52440000       9.07012000       9.06684000      -0.02460200       0.00171200      -0.02982500
18
Lattice="23.027634 0.0 0.0 0.0 20.0 0.0 0.0 0.0 20.0" Properties=species:S:1:pos:R:3:forces:R:3 energy=-155.36556018 stress="-1.9982 0.01177 -0.01613 0.01177 0.32936 -0.47377 -0.01613 -0.47377 0.32862" pbc="T T T"
Zr       3.00567000      10.00064000      10.00040000       0.09661200       0.05457500      -0.05763200
Zr      13.97973000       9.71350000      10.28675000       0.00080900      -0.23122700       0.22862600
Zr      20.02396000      10.00197000       9.99955000      -0.58462000      -0.02775200       0.02554800
Zr       0.00102000       9.99863000       9.99839000       0.16996300      -0.06639200       0.06575300
Zr       5.98160000      10.19964000       9.80248000       0.02097600       0.34236900      -0.34413700
Zr      16.98667000       9.94764000      10.05372000      -0.24769800       0.08448100      -0.08693000
O        1.50353000      10.93151000       9.06921000      -0.03820400       0.00914000      -0.01079700
O       12.94983000      10.73316000       9.26729000       0.03038600       0.14703300      -0.14677000
O       18.48317000      10.90552000       9.09744000       0.11984500      -0.02253600       0.02259900
O        1.50337000       9.06756000      10.92965000      -0.28825500      -0.05612800       0.05639500
O        6.95798000       9.16154000      10.83946000       0.14747100      -0.29175800       0.29184700
O       18.52128000       9.05392000      10.94646000       0.18029300      -0.05564200       0.05580400
O        4.48351000      11.02362000      10.84633000      -0.00026400      -0.04611600      -0.05014200
O       15.48076000      10.75353000      11.09090000       0.23428300       0.11797000       0.04587300
O       21.52806000      10.93026000      10.93092000      -0.03881700       0.03353700       0.00150900
O        4.48384000       9.15621000       8.97678000      -0.00018600       0.05143200       0.04807700
O       15.48132000       8.91043000       9.24654000       0.23295100      -0.04280000      -0.11622700
O       21.52440000       9.07012000       9.06684000      -0.03554500      -0.00018700      -0.02939800
18
Lattice="23.027634 0.0 0.0 0.0 20.0 0.0 0.0 0.0 20.0" Properties=species:S:1:pos:R:3:forces:R:3 energy=-155.37382948 stress="-1.77161 0.25093 -0.25511 0.25093 0.14856 -0.19893 -0.25511 -0.19893 0.14754" pbc="T T T"
Zr       3.00567000      10.00064000      10.00040000       0.09888100       0.03670600      -0.03985800
Zr      13.98938000       9.71187000      10.28835000      -0.09634000      -0.13947700       0.13743800
Zr      20.02396000      10.00197000       9.99955000      -0.52397300      -0.02030700       0.01810200
Zr       0.00102000       9.99863000       9.99839000       0.15846300      -0.06658800       0.06584600
Zr       5.98203000      10.20546000       9.79667000       0.12520200       0.13431800      -0.13655900
Zr      16.98978000       9.94782000      10.05354000      -0.13872800       0.09650600      -0.09896200
O        1.50353000      10.93151000       9.06921000      -0.03473100       0.01186300      -0.01363700
O       12.95671000      10.73294000       9.26754000       0.10202400       0.06301700      -0.06290800
O       18.48501000      10.90554000       9.09742000       0.11308400      -0.00596500       0.00625900
O        1.50337000       9.06756000      10.92965000      -0.28400900      -0.05573900       0.05589500
O        6.95268000       9.15935000      10.84161000       0.02374800      -0.12334600       0.12360500
O       18.52490000       9.05413000      10.94627000       0.16185400      -0.07374300       0.07450300
O        4.48477000      11.02025000      10.84620000       0.00767600       0.00753400      -0.05307500
O       15.48969000      10.75616000      11.09038000       0.16638100       0.10248700       0.05706500
O       21.52806000      10.93026000      10.93092000      -0.02860200       0.03606300       0.00475500
O        4.48510000       9.15633000       8.98016000       0.00784200       0.05445400      -0.00544000
O       15.49024000       8.91097000       9.24390000       0.16655800      -0.05421100      -0.10096000
O       21.52440000       9.07012000       9.06684000      -0.02533000      -0.00357200      -0.03207100
18
Lattice="23.027634 0.0 0.0 0.0 20.0 0.0 0.0 0.0 20.0" Properties=species:S:1:pos:R:3:forces:R:3 energy=-155.37779068 stress="-1.42971 0.59827 -0.60366 0.59827 -0.11342 0.20716 -0.60366 0.20716 -0.11258" pbc="T T T"
Zr       3.00567000      10.00064000      10.00040000       0.10137500       0.01082700      -0.01379800
Zr      14.00355000       9.70949000      10.29071000      -0.24141300      -0.00766600       0.00646100
Zr      20.02396000      10.00197000       9.99955000      -0.43451400      -0.00886100       0.00697900
Zr       0.00102000       9.99863000       9.99839000       0.14069800      -0.06681100       0.06624100
Zr       5.98266000      10.21402000       9.78814000       0.26260000      -0.16935500       0.16614300
Zr      16.99435000       9.94807000      10.05328000       0.02400800       0.11423300      -0.11620800
O        1.50353000      10.93151000       9.06921000      -0.03050300       0.01590200      -0.01752400
O       12.96679000      10.73261000       9.26790000       0.22100300      -0.05856700       0.05930900
O       18.48770000      10.90558000       9.09740000       0.10084500       0.01912800      -0.01809500
O        1.50337000       9.06756000      10.92965000      -0.27871300      -0.05515400       0.05547300
O        6.94490000       9.15614000      10.84477000      -0.14483000       0.12041000      -0.12013800
O       18.53021000       9.05443000      10.94598000       0.12683300      -0.10317400       0.10300100
O        4.48662000      11.01530000      10.84599000       0.02166200       0.08355300      -0.05658700
O       15.50282000      10.76001000      11.08961000       0.06743800       0.08389900       0.06939700
O       21.52806000      10.93026000      10.93092000      -0.01450200       0.03982400       0.00979600
O        4.48694000       9.15652000       8.98512000       0.02143000       0.05830400      -0.08186900
O       15.50335000       8.91175000       9.24003000       0.06781200      -0.06799800      -0.08285900
O       21.52440000       9.07012000       9.06684000      -0.01122900      -0.00849200      -0.03572200
18
Lattice="23.027634 0.0 0.0 0.0 20.0 0.0 0.0 0.0 20.0" Properties=species:S:1:pos:R:3:forces:R:3 energy=-155.38213052 stress="-1.4302 0.48149 -0.4867 0.48149 -0.07287 0.05334 -0.4867 0.05334 -0.06937" pbc="T T T"
Zr       3.00567000      10.00064000      10.00040000       0.14999000       0.01070800      -0.01305200
Zr      14.00731000       9.70811000      10.29204000      -0.07746900      -0.02010600       0.01982400
Zr      20.02396000      10.00197000       9.99955000      -0.37104400      -0.01927300       0.01745500
Zr       0.00102000       9.99863000       9.99839000       0.12951000      -0.06718400       0.06652900
Zr       5.98700000      10.21593000       9.78619000       0.09643200      -0.12044100       0.11815000
Zr      16.99712000       9.94995000      10.05136000       0.09114500       0.07233900      -0.07342600
O        1.50353000      10.93151000       9.06921000      -0.02970000       0.01799500      -0.01975000
O       12.97548000      10.73154000       9.26900000       0.17459700      -0.02631100       0.02580100
O       18.49066000      10.90589000       9.09712000       0.08063200       0.04100900      -0.03948200
O        1.50337000       9.06756000      10.92965000      -0.27735100      -0.05731000       0.05749900
O        6.93860000       9.15630000      10.84460000      -0.05997100       0.04747100      -0.04673800
O       18.53494000       9.05302000      10.94741000       0.06507500      -0.06954000       0.06910900
O        4.48793000      11.01398000      10.84502000       0.03863100       0.10380800      -0.05877700
O       15.51075000      10.76332000      11.09027000      -0.02332000       0.02981700       0.03473800
O       21.52806000      10.93026000      10.93092000      -0.00303100       0.04331000       0.01376600
O        4.48824000       9.15751000       8.98648000       0.03883300       0.06018800      -0.10226400
O       15.51128000       8.91112000       9.23672000      -0.02321400      -0.03387400      -0.03000200
O       21.52440000       9.07012000       9.06684000       0.00025500      -0.01260800      -0.03938000
18
Lattice="23.027634 0.0 0.0 0.0 20.0 0.0 0.0 0.0 20.0" Properties=species:S:1:pos:R:3:forces:R:3 energy=-155.3830204 stress="-1.42126 0.35732 -0.36315 0.35732 -0.0291 -0.11073 -0.36315 -0.11073 -0.02716" pbc="T T T"
Zr       3.00567000      10.00064000      10.00040000       0.20333400       0.01106100      -0.01275900
Zr      14.01130000       9.70665000      10.29346000       0.09132000      -0.03297800       0.03359200