18
Lattice="22.027634 0.0 0.0 0.0 20.0 0.0 0.0 0.0 20.0" Properties=species:S:1:pos:R:3:forces:R:3 energy=-155.02484935 stress="-20.22797 0.0305 -0.03335 0.0305 -3.65882 0.2344 -0.03335 0.2344 -3.66052" pbc="T T T"
Zr       3.00567000      10.00064000      10.00040000       2.88804300       0.34125900      -0.34577000
Zr      12.81824000       9.69944000      10.30081000       0.90246000       0.44263200      -0.44079700
Zr      19.02396000      10.00197000       9.99955000      -2.75556000       0.00289400      -0.00315300
Zr       0.00102000       9.99863000       9.99839000       0.08880800      -0.06297300       0.06257200
Zr       6.13390000      10.21950000       9.78085000      -1.33683700      -0.43916500       0.44051600
Zr      15.86882000       9.96908000      10.03252000       0.50317400      -0.11853200       0.11827500
O        1.50353000      10.93151000       9.06921000       0.13242300      -0.10513400       0.10500700
O       11.84375000      10.75956000       9.24203000       0.29799800      -0.32903800       0.32776600
O       17.41156000      10.92051000       9.08338000       0.63278900      -0.50320000       0.50130500
O        1.50337000       9.06756000      10.92965000      -0.12402900       0.02559800      -0.02544800
O        7.07269000       9.14377000      10.85480000      -0.22426600       0.29266200      -0.29291700
O       17.42398000       9.05827000      10.94214000       0.51934600       0.49093600      -0.49162700
O        4.59638000      11.04322000      10.81325000      -0.62760800      -0.51198700      -0.45986500
O       14.35360000      10.75444000      11.10050000      -0.01853800      -0.28438900      -0.27788600
O       20.52806000      10.93026000      10.93092000      -0.11678800      -0.05558200      -0.07568300
O        4.59553000       9.18917000       8.95580000      -0.62897400       0.45907700       0.51317200
O       14.35403000       8.90171000       9.24517000      -0.01825500       0.27809300       0.28578300
O       20.52440000       9.07012000       9.06684000      -0.11418600       0.07685000       0.05875100
18
Lattice="22.027634 0.0 0.0 0.0 20.0 0.0 0.0 0.0 20.0" Properties=species:S:1:pos:R:3:forces:R:3 energy=-155.19730167 stress="-10.3474 -0.52967 0.52319 -0.52967 1.36381 -0.05536 0.52319 -0.05536 1.36263" pbc="T T T"
Zr       3.00567000      10.00064000      10.00040000       1.81041000       0.28370400      -0.28699600
Zr      12.86178000       9.72080000      10.27954000       0.04575300      -0.67718100       0.67762300
Zr      19.02396000      10.00197000       9.99955000      -1.96218900      -0.01021500       0.00985600
Zr       0.00102000       9.99863000       9.99839000       0.09281100      -0.06707700       0.06704900
Zr       6.06940000      10.19831000       9.80210000       0.02992900       0.34079800      -0.34114200
Zr      15.89309000       9.96336000      10.03822000       0.05718000      -0.01940600       0.01992500
O        1.50353000      10.93151000       9.06921000       0.08034600      -0.05778100       0.05785800
O       11.85813000      10.74369000       9.25784000      -0.34740800       0.54354200      -0.54431800
O       17.44209000      10.89623000       9.10756000       0.27916200       0.02035600      -0.02372600
O        1.50337000       9.06756000      10.92965000      -0.19755400      -0.02504600       0.02515100
O        7.06187000       9.15789000      10.84066000       0.01774100      -0.22250300       0.22283000
O       17.44903000       9.08196000      10.91842000       0.32498200      -0.12602700       0.12492000
O        4.56611000      11.01852000      10.79106000      -0.84338700       0.16523400       0.41668800
O       14.35271000      10.74072000      11.08709000       0.78244300       0.30471800       0.06399600
O       20.52806000      10.93026000      10.93092000      -0.05663100      -0.00678100      -0.03236700
O        4.56519000       9.21132000       8.98056000      -0.84151500      -0.41569200      -0.16278000
O       14.35315000       8.91512000       9.25896000       0.78217100      -0.06444900      -0.30460400
O       20.52440000       9.07012000       9.06684000      -0.05424600       0.03380700       0.01003600
18
Lattice="22.027634 0.0 0.0 0.0 20.0 0.0 0.0 0.0 20.0" Properties=species:S:1:pos:R:3:forces:R:3 energy=-155.19973884 stress="-11.45682 -0.46364 0.45719 -0.46364 0.8236 -0.04347 0.45719 -0.04347 0.82109" pbc="T T T"
Zr       3.00567000      10.00064000      10.00040000       1.93532400       0.29049400      -0.29387000
Zr      12.85726000       9.71858000      10.28175000       0.14300900      -0.55858700       0.55923800
Zr      19.02396000      10.00197000       9.99955000      -2.05353000      -0.00812300       0.00784300
Zr       0.00102000       9.99863000       9.99839000       0.09268300      -0.06644800       0.06644700
Zr       6.07610000      10.20051000       9.79990000      -0.12692500       0.26179100      -0.26162800
Zr      15.89057000       9.96396000      10.03763000       0.10568200      -0.03040400       0.03000600
O        1.50353000      10.93151000       9.06921000       0.08560800      -0.06264500       0.06276900
O       11.85664000      10.74534000       9.25620000      -0.27460700       0.45085500      -0.45016200
O       17.43892000      10.89875000       9.10505000       0.32202900      -0.04078900       0.03689100
O        1.50337000       9.06756000      10.92965000      -0.18997900      -0.01944800       0.01962600
O        7.06299000       9.15643000      10.84213000      -0.00787800      -0.17079100       0.17041100
O       17.44643000       9.07950000      10.92088000       0.34859400      -0.05801100       0.05704200
O        4.56925000      11.02109000      10.79336000      -0.82048400       0.08705200       0.31709600
O       14.35280000      10.74215000      11.08848000       0.69173100       0.23806300       0.02261700
O       20.52806000      10.93026000      10.93092000      -0.06310900      -0.01178700      -0.03709500
O        4.56833000       9.20902000       8.97799000      -0.82007900      -0.31627500      -0.08433400
O       14.35324000       8.91373000       9.25753000       0.69263200      -0.02352600      -0.23800300
O       20.52440000       9.07012000       9.06684000      -0.06070000       0.03857900       0.01510500
18
Lattice="22.027634 0.0 0.0 0.0 20.0 0.0 0.0 0.0 20.0" Properties=species:S:1:pos:R:3:forces:R:3 energy=-155.26351669 stress="-8.87304 1.36133 -1.36434 1.36133 0.22906 1.45001 -1.36434 1.45001 0.22981" pbc="T T T"
Zr       3.00567000      10.00064000      10.00040000       0.61529800       0.17498100      -0.17614800
Zr      12.88677000       9.70335000      10.29706000      -0.72426100       0.74944300      -0.74952400
Zr      19.02396000      10.00197000       9.99955000      -1.27805200      -0.05771500       0.05632500
Zr       0.00102000       9.99863000       9.99839000       0.12306300      -0.06938800       0.06928100
Zr       6.03640000      10.20181000       9.79865000       0.26380800      -0.25883800       0.25809400
Zr      15.90825000       9.95953000      10.04203000       0.47284300       0.09193400      -0.09272200
O        1.50353000      10.93151000       9.06921000      -0.00331700      -0.00413400       0.00381700
O       11.85118000      10.75834000       9.24320000       0.83225900      -0.75202500       0.75218100
O       17.47009000      10.88414000       9.11943000      -0.15656600       0.32203700      -0.32428300
O        1.50337000       9.06756000      10.92965000      -0.28761300      -0.07508500       0.07469600
O        7.05697000       9.15574000      10.84280000      -0.53279400       0.34779800      -0.34709700
O       17.47600000       9.08914000      10.91118000      -0.02995200      -0.40307400       0.40288100
O        4.51466000      11.01229000      10.79675000      -0.01258400       0.34186400       0.45958700
O       14.38501000      10.74622000      11.08254000       0.36766400       0.13991400       0.12102800
O       20.52806000      10.93026000      10.93092000      -0.00423600       0.03941500       0.00904900
O        4.51374000       9.20565000       8.98694000      -0.01099700      -0.46025300      -0.34174200
O       14.38550000       8.91963000       9.25349000       0.36744500      -0.11896900      -0.13891400
O       20.52440000       9.07012000       9.06684000      -0.00200700      -0.00790400      -0.03651000
18
Lattice="22.027634 0.0 0.0 0.0 20.0 0.0 0.0 0.0 20.0" Properties=species:S:1:pos:R:3:forces:R:3 energy=-155.27279426 stress="-9.62562 0.90647 -0.90813 0.90647 0.32979 1.07525 -0.90813 1.07525 0.33089" pbc="T T T"
Zr       3.00567000      10.00064000      10.00040000       0.98967400       0.20692800      -0.20900500
Zr      12.87897000       9.70737000      10.29301000      -0.52044600       0.43307000      -0.43326900
Zr      19.02396000      10.00197000       9.99955000      -1.49674400      -0.04339000       0.04204900
Zr       0.00102000       9.99863000       9.99839000       0.11464000      -0.06885900       0.06853900
Zr       6.04688000      10.20146000       9.79898000       0.15674800      -0.12607800       0.12552000
Zr      15.90358000       9.96070000      10.04087000       0.37583900       0.05978300      -0.06069800
O        1.50353000      10.93151000       9.06921000       0.02015100      -0.02027000       0.01983100
O       11.85262000      10.75491000       9.24663000       0.56542200      -0.46411500       0.46418500
O       17.46186000      10.88800000       9.11564000      -0.02497800       0.22264100      -0.22327300
O        1.50337000       9.06756000      10.92965000      -0.26185200      -0.06031100       0.05983300
O        7.05856000       9.15592000      10.84262000      -0.39524200       0.21575300      -0.21551300
O       17.46819000       9.08659000      10.91374000       0.07761800      -0.30772500       0.30668800
O        4.52908000      11.01462000      10.79586000      -0.23575700       0.26740500       0.41607100
O       14.37650000      10.74515000      11.08411000       0.45386400       0.16383400       0.09444500
O       20.52806000      10.93026000      10.93092000      -0.02067800       0.02529300      -0.00342100
O        4.52816000       9.20654000       8.98458000      -0.23504200      -0.41537900      -0.26634200
O       14.37698000       8.91807000       9.25456000       0.45518600      -0.09299800      -0.16311900
O       20.52440000       9.07012000       9.06684000      -0.01840000       0.00441500      -0.02252000
18
Lattice="22.027634 0.0 0.0 0.0 20.0 0.0 0.0 0.0 20.0" Properties=species:S:1:pos:R:3:forces:R:3 energy=-155.31865279 stress="-8.0483 -0.20077 0.19451 -0.20077 0.89541 -0.73334 0.19451 -0.73334 0.89098" pbc="T T T"
Zr       3.00567000      10.00064000      10.00040000       0.10549200       0.13279200      -0.13239300
Zr      12.87586000       9.71620000      10.28422000       1.24416800      -0.23306800       0.23243400
Zr      19.02396000      10.00197000       9.99955000      -1.01131600      -0.10481700       0.10292100
Zr       0.00102000       9.99863000       9.99839000       0.15131200      -0.06833900       0.06828600
Zr       6.02719000      10.19679000       9.80365000      -0.70779900       0.12199600      -0.12023400
Zr      15.93193000       9.96036000      10.04115000       0.02408100      -0.01110400       0.01195500
O        1.50353000      10.93151000       9.06921000      -0.05610000       0.02132600      -0.02180400
O       11.87381000      10.74322000       9.25832000      -0.13782400       0.26073600      -0.26162300
O       17.48162000      10.88800000       9.11545000      -0.14123600       0.32582300      -0.32411300
O        1.50337000       9.06756000      10.92965000      -0.32885100      -0.09498200       0.09448600
O        7.03716000       9.16494000      10.83360000      -0.13148000      -0.05131100       0.05067700
O       17.49139000       9.07952000      10.92072000      -0.01611400      -0.29415100       0.29314300
O        4.48218000      11.02048000      10.81640000       0.55973800       0.13356800       0.19035100
O       14.41801000      10.75507000      11.08429000      -0.06490800      -0.05484300      -0.07417300
O       20.52806000      10.93026000      10.93092000       0.00633200       0.05426100       0.02112500
O        4.48128000       9.18603000       8.97887000       0.56147100      -0.19194600      -0.13302400
O       14.41858000       8.91793000       9.24469000      -0.06549800       0.07409800       0.05339400
O       20.52440000       9.07012000       9.06684000       0.00853100      -0.02003900      -0.05140900
18
Lattice="22.027634 0.0 0.0 0.0 20.0 0.0 0.0 0.0 20.0" Properties=species:S:1:pos:R:3:forces:R:3 energy=-155.32519296 stress="-8.50455 0.09707 -0.10244 0.09707 0.7137 -0.26513 -0.10244 -0.26513 0.70969" pbc="T T T"
Zr       3.00567000      10.00064000      10.00040000       0.34378300       0.15246500      -0.15251900
Zr      12.87667000       9.71390000      10.28652000       0.78609600      -0.04180200       0.04142900
Zr      19.02396000      10.00197000       9.99955000      -1.14108300      -0.08807200       0.08655100
Zr       0.00102000       9.99863000       9.99839000       0.14205800      -0.06835300       0.06846200
Zr       6.03234000      10.19801000       9.80243000      -0.48947700       0.05329500      -0.05188600
Zr      15.92452000       9.96045000      10.04107000       0.11522000       0.00801500      -0.00674800
O        1.50353000      10.93151000       9.06921000      -0.03609600       0.01059100      -0.01082500
O       11.86827000      10.74628000       9.25526000       0.05991600       0.05404100      -0.05526000
O       17.47646000      10.88800000       9.11550000      -0.10975600       0.29550400      -0.29638000
O        1.50337000       9.06756000      10.92965000      -0.31139000      -0.08593200       0.08567500
O        7.04276000       9.16258000      10.83596000      -0.20473000       0.02308600      -0.02360300
O       17.48532000       9.08137000      10.91890000       0.00863300      -0.29610800       0.29530700
O        4.49444000      11.01894000      10.81103000       0.35377500       0.16083100       0.24273100
O       14.40716000      10.75248000      11.08424000       0.06459900      -0.00199100      -0.03351600
O       20.52806000      10.93026000      10.93092000      -0.00062500       0.04678500       0.01483500
O        4.49353000       9.19139000       8.98036000       0.35425900      -0.24264200      -0.16237100
O       14.40770000       8.91797000       9.24727000       0.06322400       0.03382400       0.00183900
O       20.52440000       9.07012000       9.06684000       0.00159500      -0.01353900      -0.04372000
18
Lattice="22.027634 0.0 0.0 0.0 20.0 0.0 0.0 0.0 20.0" Properties=species:S:1:pos:R:3:forces:R:3 energy=-155.37536936 stress="-6.9845 0.34324 -0.348 0.34324 -0.23641 -0.15127 -0.348 -0.15127 -0.23967" pbc="T T T"
Zr       3.00567000      10.00064000      10.00040000       0.17314800       0.11919400      -0.11959100
Zr      12.90790000       9.71644000      10.28398000       0.46883900      -0.01131200       0.01100700
Zr      19.02396000      10.00197000       9.99955000      -1.04961600      -0.09265600       0.09047000
Zr       0.00102000       9.99863000       9.99839000       0.13131500      -0.06700300       0.06701200
Zr       6.00240000      10.19797000       9.80254000      -0.05766500       0.08177400      -0.08093300
Zr      15.94307000       9.96062000      10.04093000       0.14420300      -0.02687100       0.02757300
O        1.50353000      10.93151000       9.06921000      -0.01609200       0.00336900      -0.00368900
O       11.88104000      10.74286000       9.25863000       0.15638400      -0.00722400       0.00732000
O       17.48148000      10.90030000       9.10307000      -0.05540200       0.06774300      -0.06760500
O        1.50337000       9.06756000      10.92965000      -0.28032100      -0.06794800       0.06772100
O        7.02385000       9.16792000      10.83060000      -0.20758600       0.01183600      -0.01107500
O       17.49694000       9.06561000      10.93458000       0.00017400      -0.01585600       0.01582400
O        4.48642000      11.02849000      10.83111000       0.19836600      -0.06190300       0.01758200
O       14.42999000      10.75721000      11.08293000       0.10954500       0.01429900      -0.03905100
O       20.52806000      10.93026000      10.93092000      -0.01270200       0.03559500       0.00370000
O        4.48554000       9.17134000       8.97083000       0.19919800      -0.01971900       0.06061400
O       14.43052000       8.91931000       9.24255000       0.10872100       0.03915800      -0.01439900
O       20.52440000       9.07012000       9.06684000      -0.01051000      -0.00247700      -0.03248200
18
Lattice="22.027634 0.0 0.0 0.0 20.0 0.0 0.0 0.0 20.0" Properties=species:S:1:pos:R:3:forces:R:3 energy=-155.38486669 stress="-5.97961 0.50665 -0.51197 0.50665 -0.85695 -0.07404 -0.51197 -0.07404 -0.8613" pbc="T T T"
Zr       3.00567000      10.00064000      10.00040000       0.05139100       0.09694500      -0.09744900
Zr      12.92846000       9.71812000      10.28231000       0.25379000       0.00977200      -0.01001300
Zr      19.02396000      10.00197000       9.99955000      -0.98452500      -0.09601900       0.09350100
Zr       0.00102000       9.99863000       9.99839000       0.12425700      -0.06571800       0.06577700
Zr       5.98268000      10.19793000       9.80261000       0.22651200       0.09793500      -0.09725400
Zr      15.95529000       9.96074000      10.04083000       0.16171600      -0.04894800       0.04844600
O        1.50353000      10.93151000       9.06921000      -0.00266200      -0.00130900       0.00104800
O       11.88946000      10.74060000       9.26085000       0.21953400      -0.04896800       0.04921000
O       17.48478000      10.90841000       9.09488000      -0.02077800      -0.08107000       0.08006500
O        1.50337000       9.06756000      10.92965000      -0.25918300      -0.05567500       0.05558600
O        7.01139000       9.17143000      10.82706000      -0.20837700       0.00764800      -0.00793800
O       17.50459000       9.05523000      10.94491000      -0.00421100       0.16177500      -0.16121600
O        4.48113000      11.03477000      10.84434000       0.09873000      -0.20494800      -0.12332100
O       14.44503000      10.76033000      11.08207000       0.14007800       0.02802200      -0.04330300
O       20.52806000      10.93026000      10.93092000      -0.02081000       0.02833800      -0.00401200
O        4.48027000       9.15813000       8.96455000       0.10142000       0.12238800       0.20452800
O       14.44555000       8.92020000       9.23945000       0.14175600       0.04452900      -0.02857900
O       20.52440000       9.07012000       9.06684000      -0.01863600       0.00530400      -0.02507700
18
Lattice="22.027634 0.0 0.0 0.0 20.0 0.0 0.0 0.0 20.0" Properties=species:S:1:pos:R:3:forces:R:3 energy=-155.40362754 stress="-4.40808 0.32732 -0.32977 0.32732 -0.33096 -0.21976 -0.32977 -0.21976 -0.33632" pbc="T T T"
Zr       3.00567000      10.00064000      10.00040000       0.09671600       0.07337800      -0.07555300
Zr      12.95098000       9.71944000      10.28098000       0.07322400      -0.05598800       0.05597000
Zr      19.02396000      10.00197000       9.99955000      -0.80724200      -0.05627100       0.05352200
Zr       0.00102000       9.99863000       9.99839000       0.15459400      -0.06464100       0.06467100
Zr       5.98324000      10.20253000       9.79806000       0.11939700       0.20213100      -0.20151800
Zr      15.96919000       9.95849000      10.04306000      -0.04407200       0.02845500      -0.02760800
O        1.50353000      10.93151000       9.06921000      -0.02208000       0.00362400      -0.00391200
O       11.90413000      10.73714000       9.26431000       0.18319800      -0.00281900       0.00299800
O       17.48550000      10.90875000       9.09445000       0.05063600      -0.05207900       0.05142700
O        1.50337000       9.06756000      10.92965000      -0.27458600      -0.05617200       0.05610200
O        6.99518000       9.17360000      10.82488000      -0.04249300      -0.12922400       0.13048200
O       17.50832000       9.05753000      10.94262000       0.09484800       0.04328400      -0.04295300
O        4.48307000      11.02834000      10.84531000       0.05768100      -0.12418700      -0.09248100
O       14.45935000      10.76325000      11.07958000       0.18563800       0.06977900       0.00213100
O       20.52806000      10.93026000      10.93092000      -0.03465300       0.02837100      -0.00152100
O        4.48235000       9.15712000       8.97097000       0.05764100       0.09217700       0.12310200
O       14.45994000       8.92275000       9.23651000       0.18408200      -0.00261100      -0.06979000
O       20.52440000       9.07012000       9.06684000      -0.03252900       0.00279300      -0.02506800
18
Lattice="22.027634 0.0 0.0 0.0 20.0 0.0 0.0 0.0 20.0" Properties=species:S:1:pos:R:3:forces:R:3 energy=-155.41188656 stress="-2.39815 0.10336 -0.10121 0.10336 0.34534 -0.40841 -0.10121 -0.40841 0.34109" pbc="T T T"
Zr       3.00567000      10.00064000      10.00040000       0.15275200       0.04406800      -0.04840900
Zr      12.97924000       9.72110000      10.27931000      -0.15976000      -0.13868000       0.13823500
Zr      19.02396000      10.00197000       9.99955000      -0.57938600      -0.00430800       0.00124500
Zr       0.00102000       9.99863000       9.99839000       0.19148500      -0.06322500       0.06318700
Zr       5.98394000      10.20831000       9.79235000      -0.01582000       0.33735900      -0.33681800
Zr      15.98663000       9.95566000      10.04587000      -0.32602300       0.12974700      -0.12864700
O        1.50353000      10.93151000       9.06921000      -0.04750200       0.00985100      -0.01020000
O       11.92253000      10.73279000       9.26865000       0.13721900       0.05525900      -0.05528000
O       17.48640000      10.90917000       9.09392000       0.14328500      -0.01295800       0.01327700
O        1.50337000       9.06756000      10.92965000      -0.29500200      -0.05669500       0.05661800
O        6.97483000       9.17631000      10.82213000       0.16768500      -0.30703600       0.30668400
O       17.51300000       9.06041000      10.93974000       0.23003800      -0.11389100       0.11389000
O        4.48550000      11.02026000      10.84654000       0.00639500      -0.01978600      -0.05368600
O       14.47732000      10.76692000      11.07647000       0.24809000       0.12336200       0.06622000
O       20.52806000      10.93026000      10.93092000      -0.05321200       0.02850900       0.00155000
O        4.48495000       9.15585000       8.97902000       0.00450100       0.05457900       0.02168200
O       14.47801000       8.92595000       9.23282000       0.24640600      -0.06582000      -0.12436400
O       20.52440000       9.07012000       9.06684000      -0.05115200      -0.00033500      -0.02518300
18
Lattice="22.027634 0.0 0.0 0.0 20.0 0.0 0.0 0.0 20.0" Properties=species:S:1:pos:R:3:forces:R:3 energy=-155.42090999 stress="-2.16165 0.32063 -0.31821 0.32063 0.18138 -0.1608 -0.31821 -0.1608 0.17625" pbc="T T T"
Zr       3.00567000      10.00064000      10.00040000       0.14146200       0.02375000      -0.02827000
Zr      12.98863000       9.71999000      10.28041000      -0.16659000      -0.11121300       0.11092400
Zr      19.02396000      10.00197000       9.99955000      -0.52142200       0.00028700      -0.00327500
Zr       0.00102000       9.99863000       9.99839000       0.17067100      -0.06364000       0.06377100
Zr       5.98402000      10.21497000       9.78573000       0.11190400       0.08775200      -0.08765300
Zr      15.98950000       9.95619000      10.04535000      -0.17545700       0.12740000      -0.12541900
O        1.50353000      10.93151000       9.06921000      -0.04094400       0.01323700      -0.01343600
O       11.93174000      10.73174000       9.26970000       0.15237600       0.03490000      -0.03497500
O       17.48861000      10.90918000       9.09387000       0.13132000       0.00731300      -0.00603400
O        1.50337000       9.06756000      10.92965000      -0.28782600      -0.05647300       0.05656300
O        6.96874000       9.17348000      10.82496000       0.01647000      -0.10180900       0.10166200
O       17.51785000       9.06011000      10.94003000       0.18716800      -0.11921600       0.11934200
O        4.48657000      11.01674000      10.84634000       0.02144500       0.03761300      -0.05814700
O       14.48778000      10.76999000      11.07605000       0.15752300       0.10462700       0.06818100
O       20.52806000      10.93026000      10.93092000      -0.03739600       0.03206100       0.00607000
O        4.48607000       9.15604000       8.98256000       0.01958600       0.05909500      -0.03554900
O       14.48848000       8.92640000       9.22973000       0.15506600      -0.07094900      -0.10515700
O       20.52440000       9.07012000       9.06684000      -0.03535700      -0.00473500      -0.02859900
18
Lattice="22.027634 0.0 0.0 0.0 20.0 0.0 0.0 0.0 20.0" Properties=species:S:1:pos:R:3:forces:R:3 energy=-155.4242732 stress="-1.85658 0.57043 -0.56566 0.57043 -0.01697 0.14233 -0.56566 0.14233 -0.01977" pbc="T T T"
Zr       3.00567000      10.00064000      10.00040000       0.12767200      -0.00028600      -0.00481800
Zr      12.99984000       9.71866000      10.28172000      -0.17482600      -0.07819400       0.07772200
Zr      19.02396000      10.00197000       9.99955000      -0.45124900       0.00613900      -0.00939600
Zr       0.00102000       9.99863000       9.99839000       0.14558300      -0.06416500       0.06413500
Zr       5.98411000      10.22293000       9.77781000       0.25027200      -0.20712100       0.20659000
Zr      15.99294000       9.95681000      10.04474000       0.00876900       0.12500800      -0.12247000
O        1.50353000      10.93151000       9.06921000      -0.03342400       0.01725700      -0.01764000
O       11.94274000      10.73049000       9.27095000       0.16908900       0.01119000      -0.01078100
O       17.49124000      10.90918000       9.09381000       0.11767900       0.03051900      -0.02890000
O        1.50337000       9.06756000      10.92965000      -0.27961900      -0.05630500       0.05623300
O        6.96148000       9.17009000      10.82833000      -0.15445100       0.13774000      -0.13742600
O       17.52363000       9.05976000      10.94038000       0.13737700      -0.12704700       0.12700800
O        4.48785000      11.01254000      10.84611000       0.04095100       0.10597000      -0.06466700
O       14.50026000      10.77365000      11.07556000       0.04763100       0.08429700       0.07648500
O       20.52806000      10.93026000      10.93092000      -0.01882300       0.03628300       0.01116000
O        4.48739000       9.15626000       8.98679000       0.03821800       0.06619700      -0.10422300
O       14.50099000       8.92694000       9.22604000       0.04595700      -0.07743600      -0.08598800
O       20.52440000       9.07012000       9.06684000      -0.01680700      -0.01004600      -0.03302500
18
Lattice="22.027634 0.0 0.0 0.0 20.0 0.0 0.0 0.0 20.0" Properties=species:S:1:pos:R:3:forces:R:3 energy=-155.42880901 stress="-1.91882 0.4489 -0.44584 0.4489 -0.0118 -0.01474 -0.44584 -0.01474 -0.01213" pbc="T T T"
Zr       3.00567000      10.00064000      10.00040000       0.17778500       0.00463600      -0.00886800
Zr      13.00275000       9.71675000      10.28361000      -0.02978100      -0.06046000       0.06024200
Zr      19.02396000      10.00197000       9.99955000      -0.40021000      -0.01010100       0.00698400
Zr       0.00102000       9.99863000       9.99839000       0.13072300      -0.06416900       0.06435100
Zr       5.98813000      10.22367000       9.77707000       0.06951200      -0.10784500       0.10750500
Zr      15.99482000       9.95911000      10.04248000       0.10518200       0.06764900      -0.06658600
O        1.50353000      10.93151000       9.06921000      -0.03213400       0.01899900      -0.01922200
O       11.95101000      10.73003000       9.27142000       0.14540000       0.01587800      -0.01562700
O       17.49444000      10.90967000       9.09332000       0.09073800       0.04497500      -0.04441300
O        1.50337000       9.06756000      10.92965000      -0.27817300      -0.05811600       0.05819900
O        6.95534000       9.17056000      10.82785000      -0.03645800       0.02595300      -0.02558700
O       17.52875000       9.05757000      10.94258000       0.05831500      -0.07138400       0.07176200
O        4.48914000      11.01209000      10.84497000       0.04755600       0.11476600      -0.06495000
O       14.50735000      10.77684000      11.07653000      -0.04124900       0.02348000       0.03659400
O       20.52806000      10.93026000      10.93092000      -0.00581700       0.04012300       0.01494300
O        4.48868000       9.15742000       8.98727000       0.04460000       0.06706300      -0.11342400
O       14.50806000       8.92599000       9.22280000      -0.04219300      -0.03779000      -0.02519700
O       20.52440000       9.07012000       9.06684000      -0.00379500      -0.01365800      -0.03670700
18
Lattice="22.027634 0.0 0.0 0.0 20.0 0.0 0.0 0.0 20.0" Properties=species:S:1:pos:R:3:forces:R:3 energy=-155.42983104 stress="-1.97026 0.35081 -0.34947 0.35081 0.00645 -0.1419 -0.34947 -0.1419 0.00711" pbc="T T T"
Zr       3.00567000      10.00064000      10.00040000       0.22033700       0.00813000      -0.01197100
Zr      13.00503000       9.71525000      10.28510000       0.07765800      -0.04791300       0.04698000