18
Lattice="20.527634 0.0 0.0 0.0 20.0 0.0 0.0 0.0 20.0" Properties=species:S:1:pos:R:3:forces:R:3 energy=-150.67836192 stress="-95.09996 0.00634 0.00813 0.00634 -2.20184 0.00027 0.00813 0.00027 -2.2037" pbc="T T T"
Zr       3.00567000      10.00064000      10.00040000       6.21787300      -0.00074900      -0.00105200
Zr      10.26497000      10.00322000      10.00010000       0.00050600       0.00075100      -0.00300400
Zr      17.52396000      10.00197000       9.99955000      -6.22141900      -0.00137800       0.00075200
Zr       0.00102000       9.99863000       9.99839000      -0.00135600      -0.00018500      -0.00050400
Zr       6.67462000      10.00235000      10.00027000      -0.24542600      -0.00223600       0.00360200
Zr      13.85523000      10.00284000       9.99994000       0.24287500       0.00150500      -0.00072600
O        1.50353000      10.93151000       9.06921000       0.32451300      -0.23064700       0.22903900
O        8.47578000      10.86544000       9.14005000       0.05589900      -0.13181200       0.12968600
O       15.63256000      10.86708000       9.13723000       0.16165400      -0.17395300       0.17454900
O        1.50337000       9.06756000      10.92965000       0.32636500       0.23189700      -0.23048800
O        8.47287000       9.14063000      10.86044000       0.04119900       0.12962300      -0.13061200
O       15.63360000       9.13796000      10.86241000       0.16848900       0.17499100      -0.17452300
O        4.89712000      10.86412000      10.86478000      -0.15825100      -0.17464400      -0.17456100
O       12.05654000      10.86347000      10.86239000      -0.04834200      -0.13184300      -0.13223200
O       19.02806000      10.93026000      10.93092000      -0.32574800      -0.22829700      -0.22885800
O        4.89644000       9.13879000       9.13600000      -0.16724900       0.17443500       0.17475900
O       12.05534000       9.14284000       9.13752000      -0.05004500       0.13210400       0.13213700
O       19.02440000       9.07012000       9.06684000      -0.32153700       0.23043900       0.23203600
18
Lattice="20.527634 0.0 0.0 0.0 20.0 0.0 0.0 0.0 20.0" Properties=species:S:1:pos:R:3:forces:R:3 energy=-150.69732265 stress="-94.61706 0.01146 0.00923 0.01146 -1.22664 0.00345 0.00923 0.00345 -1.22347" pbc="T T T"
Zr       3.00567000      10.00064000      10.00040000       6.16425300      -0.00130600      -0.00145200
Zr      10.26499000      10.00325000       9.99995000      -0.00146100       0.00040600      -0.00208300
Zr      17.52396000      10.00197000       9.99955000      -6.16933100      -0.00168100       0.00106000
Zr       0.00102000       9.99863000       9.99839000      -0.00236700      -0.00037700      -0.00048800
Zr       6.66278000      10.00224000      10.00045000      -0.06287900      -0.00190500       0.00308800
Zr      13.86695000      10.00291000       9.99990000       0.06439800       0.00163700      -0.00034600
O        1.50353000      10.93151000       9.06921000       0.31200300      -0.22171500       0.21985000
O        8.47848000      10.85908000       9.14631000      -0.01943600      -0.01238100       0.01106800
O       15.64036000      10.85869000       9.14565000       0.15677700      -0.01724700       0.01705200
O        1.50337000       9.06756000      10.92965000       0.31379300       0.22257700      -0.22147200
O        8.47485000       9.14689000      10.85414000      -0.04051900       0.01081700      -0.01088800
O       15.64173000       9.14641000      10.85399000       0.16677900       0.01830800      -0.01884300
O        4.88948000      10.85569000      10.85636000      -0.15553400      -0.01704800      -0.01514100
O       12.05421000      10.85711000      10.85601000       0.03379900      -0.01110000      -0.01277500
O       19.02806000      10.93026000      10.93092000      -0.31264000      -0.21929500      -0.21957900
O        4.88838000       9.14720000       9.14443000      -0.16753600       0.01747800       0.01811700
O       12.05293000       9.14922000       9.14389000       0.02841000       0.01179900       0.00999200
O       19.02440000       9.07012000       9.06684000      -0.30851000       0.22103100       0.22284000
18
Lattice="20.527634 0.0 0.0 0.0 20.0 0.0 0.0 0.0 20.0" Properties=species:S:1:pos:R:3:forces:R:3 energy=-150.6987329 stress="-94.41307 0.01507 0.0098 0.01507 -0.82978 0.00487 0.0098 0.00487 -0.83354" pbc="T T T"
Zr       3.00567000      10.00064000      10.00040000       6.14162500      -0.00139600      -0.00140100
Zr      10.26500000      10.00327000       9.99990000      -0.00195600       0.00037500      -0.00153600
Zr      17.52396000      10.00197000       9.99955000      -6.14675700      -0.00167500       0.00136500
Zr       0.00102000       9.99863000       9.99839000      -0.00247400      -0.00033400      -0.00028500
Zr       6.65837000      10.00220000      10.00051000       0.00125700      -0.00240200       0.00298500
Zr      13.87131000      10.00294000       9.99989000       0.00041300       0.00191100       0.00031000
O        1.50353000      10.93151000       9.06921000       0.30751600      -0.21846500       0.21680000
O        8.47948000      10.85671000       9.14864000      -0.04677000       0.03355300      -0.03442800
O       15.64326000      10.85557000       9.14878000       0.15483400       0.04302400      -0.04291200
O        1.50337000       9.06756000      10.92965000       0.30928300       0.21937900      -0.21809200
O        8.47559000       9.14921000      10.85180000      -0.06906300      -0.03402300       0.03292800
O       15.64475000       9.14955000      10.85086000       0.16730300      -0.04138000       0.04099300
O        4.88664000      10.85256000      10.85323000      -0.15414700       0.04308200       0.04460100
O       12.05334000      10.85474000      10.85364000       0.06115100       0.03502500       0.03334100
O       19.02806000      10.93026000      10.93092000      -0.30742200      -0.21601000      -0.21610300
O        4.88537000       9.15033000       9.14756000      -0.16697100      -0.04317400      -0.04204200
O       12.05203000       9.15159000       9.14626000       0.05549900      -0.03529200      -0.03631000
O       19.02440000       9.07012000       9.06684000      -0.30331900       0.21780500       0.21978600
18
Lattice="20.527634 0.0 0.0 0.0 20.0 0.0 0.0 0.0 20.0" Properties=species:S:1:pos:R:3:forces:R:3 energy=-150.70489775 stress="-94.56314 0.02416 0.01079 0.02416 -0.88294 0.00062 0.01079 0.00062 -0.88576" pbc="T T T"
Zr       3.00567000      10.00064000      10.00040000       6.10459000      -0.00214200      -0.00180100
Zr      10.26491000      10.00330000       9.99978000      -0.00012800       0.00058900      -0.00265500
Zr      17.52396000      10.00197000       9.99955000      -6.11026400      -0.00213500       0.00154700
Zr       0.00102000       9.99863000       9.99839000      -0.00306100      -0.00053500      -0.00037500
Zr       6.65549000      10.00205000      10.00071000      -0.03770700      -0.00144800       0.00301200
Zr      13.87424000      10.00305000       9.99989000       0.03643400       0.00136900      -0.00089300
O        1.50353000      10.93151000       9.06921000       0.29310800      -0.20953200       0.20740700
O        8.47773000      10.85687000       9.14841000      -0.04204200       0.01960000      -0.02061400
O       15.65322000      10.85572000       9.14865000       0.08799600       0.03848200      -0.03859100
O        1.50337000       9.06756000      10.92965000       0.29483000       0.21001600      -0.20923200
O        8.47251000       9.14900000      10.85194000      -0.07494600      -0.01964100       0.01891400
O       15.65545000       9.14950000      10.85089000       0.10261500      -0.03651600       0.03631100
O        4.87675000      10.85270000      10.85345000      -0.08672300       0.03699800       0.03991900
O       12.05593000      10.85498000      10.85378000       0.06472600       0.02106500       0.01963000
O       19.02806000      10.93026000      10.93092000      -0.29274500      -0.20705100      -0.20689200
O        4.87471000       9.15019000       9.14748000      -0.10365200      -0.03785300      -0.03505700
O       12.05431000       9.15134000       9.14597000       0.05571500      -0.01964500      -0.02118300
O       19.02440000       9.07012000       9.06684000      -0.28874700       0.20837900       0.21055200
18
Lattice="20.527634 0.0 0.0 0.0 20.0 0.0 0.0 0.0 20.0" Properties=species:S:1:pos:R:3:forces:R:3 energy=-150.70890093 stress="-94.70975 0.03417 0.01624 0.03417 -0.9138 -0.00297 0.01624 -0.00297 -0.9151" pbc="T T T"
Zr       3.00567000      10.00064000      10.00040000       6.05142000      -0.00249600      -0.00198000
Zr      10.26478000      10.00333000       9.99964000       0.00215500       0.00147700      -0.00432700
Zr      17.52396000      10.00197000       9.99955000      -6.05723400      -0.00212600       0.00171000
Zr       0.00102000       9.99863000       9.99839000      -0.00356200      -0.00038800      -0.00035600
Zr       6.65186000      10.00186000      10.00096000      -0.08522800      -0.00064900       0.00336000
Zr      13.87795000      10.00320000       9.99990000       0.08116500       0.00198200      -0.00253100
O        1.50353000      10.93151000       9.06921000       0.27488300      -0.19800400       0.19579100
O        8.47551000      10.85707000       9.14812000      -0.03598100       0.00267900      -0.00274000
O       15.66581000      10.85590000       9.14848000       0.00060700       0.03491800      -0.03425500
O        1.50337000       9.06756000      10.92965000       0.27655300       0.19868400      -0.19804500
O        8.46861000       9.14874000      10.85212000      -0.07777100      -0.00383600       0.00324900
O       15.66895000       9.14944000      10.85094000       0.01815700      -0.03440300       0.03550200
O        4.86426000      10.85288000      10.85373000       0.00186500       0.03110600       0.03455900
O       12.05920000      10.85527000      10.85397000       0.06314500       0.00341900       0.00010400
O       19.02806000      10.93026000      10.93092000      -0.27372100      -0.19548200      -0.19523900
O        4.86125000       9.15000000       9.14737000      -0.01957800      -0.03373900      -0.03109200
O       12.05718000       9.15103000       9.14559000       0.05297200      -0.00010800      -0.00286600
O       19.02440000       9.07012000       9.06684000      -0.26984900       0.19696700       0.19915500
18
Lattice="20.527634 0.0 0.0 0.0 20.0 0.0 0.0 0.0 20.0" Properties=species:S:1:pos:R:3:forces:R:3 energy=-150.70929572 stress="-94.76072 0.04012 0.01704 0.04012 -0.92565 -0.0045 0.01704 -0.0045 -0.92582" pbc="T T T"
Zr       3.00567000      10.00064000      10.00040000       6.02525500      -0.00278700      -0.00199900
Zr      10.26473000      10.00335000       9.99957000       0.00312800       0.00170400      -0.00515300
Zr      17.52396000      10.00197000       9.99955000      -6.03105300      -0.00225200       0.00169600
Zr       0.00102000       9.99863000       9.99839000      -0.00376900      -0.00052400      -0.00036100
Zr       6.65022000      10.00178000      10.00107000      -0.10477000      -0.00013300       0.00352700
Zr      13.87962000      10.00327000       9.99991000       0.10041200       0.00250600      -0.00333700
O        1.50353000      10.93151000       9.06921000       0.26662300      -0.19294400       0.19046800
O        8.47451000      10.85716000       9.14799000      -0.03444400      -0.00542800       0.00571100
O       15.67148000      10.85598000       9.14841000      -0.04240600       0.03445600      -0.03366100
O        1.50337000       9.06756000      10.92965000       0.26827100       0.19330300      -0.19295200
O        8.46685000       9.14862000      10.85220000      -0.08015200       0.00376400      -0.00424000
O       15.67504000       9.14941000      10.85096000      -0.02140000      -0.03428300       0.03557800
O        4.85863000      10.85296000      10.85385000       0.04418900       0.03020900       0.03331500
O       12.06068000      10.85541000      10.85405000       0.06366100      -0.00355500      -0.00774200
O       19.02806000      10.93026000      10.93092000      -0.26505300      -0.19040400      -0.18992600
O        4.85518000       9.14992000       9.14732000       0.02074000      -0.03370300      -0.02984400
O       12.05848000       9.15089000       9.14542000       0.05200600       0.00852300       0.00498400
O       19.02440000       9.07012000       9.06684000      -0.26123600       0.19154700       0.19393700
18
Lattice="20.527634 0.0 0.0 0.0 20.0 0.0 0.0 0.0 20.0" Properties=species:S:1:pos:R:3:forces:R:3 energy=-150.7114983 stress="-94.84457 0.06998 0.01875 0.06998 -1.07683 0.00335 0.01875 0.00335 -1.08044" pbc="T T T"
Zr       3.00567000      10.00064000      10.00040000       5.99356200      -0.00520100      -0.00275900
Zr      10.26491000      10.00348000       9.99915000      -0.00141800       0.00357200      -0.00569600
Zr      17.52396000      10.00197000       9.99955000      -6.00129500      -0.00375200       0.00362500
Zr       0.00102000       9.99863000       9.99839000      -0.00451000      -0.00074900      -0.00020300
Zr       6.64152000      10.00170000      10.00141000      -0.02294700      -0.00344600       0.00722900
Zr      13.88803000      10.00350000       9.99967000       0.02311500       0.00263900      -0.00090200
O        1.50353000      10.93151000       9.06921000       0.27095400      -0.19534000       0.19226800
O        8.47129000      10.85685000       9.14829000      -0.00312200      -0.00802700       0.00810000
O       15.67290000      10.85849000       9.14596000      -0.03266600      -0.00350100       0.00372600
O        1.50337000       9.06756000      10.92965000       0.27249400       0.19515300      -0.19535900
O        8.45980000       9.14879000      10.85196000      -0.07237600       0.00885600      -0.00837200
O       15.67828000       9.14696000      10.85349000      -0.00476000       0.00667800      -0.00600700
O        4.85737000      10.85516000      10.85631000       0.03531000      -0.00637200      -0.00299400
O       12.06634000      10.85526000      10.85356000       0.04919100      -0.00600200      -0.01167100
O       19.02806000      10.93026000      10.93092000      -0.26837700      -0.19280700      -0.19163000
O        4.85191000       9.14746000       9.14517000       0.00181600       0.00374000       0.00836900
O       12.06318000       9.15139000       9.14564000       0.02980100       0.01123300       0.00583400
O       19.02440000       9.07012000       9.06684000      -0.26477200       0.19332600       0.19644200
18
Lattice="20.527634 0.0 0.0 0.0 20.0 0.0 0.0 0.0 20.0" Properties=species:S:1:pos:R:3:forces:R:3 energy=-150.71153868 stress="-94.91047 0.09848 0.01767 0.09848 -1.21301 0.01254 0.01767 0.01254 -1.21416" pbc="T T T"
Zr       3.00567000      10.00064000      10.00040000       5.96670800      -0.00751600      -0.00333400
Zr      10.26508000      10.00361000       9.99875000      -0.00565400       0.00587300      -0.00700500
Zr      17.52396000      10.00197000       9.99955000      -5.97708700      -0.00505200       0.00531300
Zr       0.00102000       9.99863000       9.99839000      -0.00566000      -0.00103600      -0.00008800
Zr       6.63311000      10.00163000      10.00174000       0.06984300      -0.00795400       0.01007300
Zr      13.89617000      10.00372000       9.99945000      -0.06512200       0.00410900       0.00180800
O        1.50353000      10.93151000       9.06921000       0.27319900      -0.19710200       0.19347000
O        8.46818000      10.85655000       9.14858000       0.02715000      -0.01069800       0.01067800
O       15.67428000      10.86091000       9.14360000      -0.01952000      -0.04034500       0.04101000
O        1.50337000       9.06756000      10.92965000       0.27459500       0.19672300      -0.19744500
O        8.45299000       9.14896000      10.85173000      -0.06569000       0.01246300      -0.01037500
O       15.68140000       9.14459000      10.85594000       0.01860200       0.04590400      -0.04446300
O        4.85615000      10.85729000      10.85868000       0.02110100      -0.03920400      -0.03563200
O       12.07181000      10.85512000      10.85309000       0.03563900      -0.00707500      -0.01536800
O       19.02806000      10.93026000      10.93092000      -0.27018400      -0.19464200      -0.19304100
O        4.84875000       9.14509000       9.14309000      -0.02139100       0.03822000       0.04192400
O       12.06772000       9.15186000       9.14585000       0.01030700       0.01256500       0.00414000
O       19.02440000       9.07012000       9.06684000      -0.26683700       0.19476800       0.19833400
18
Lattice="20.527634 0.0 0.0 0.0 20.0 0.0 0.0 0.0 20.0" Properties=species:S:1:pos:R:3:forces:R:3 energy=-150.71181932 stress="-94.87718 0.08446 0.01828 0.08446 -1.14325 0.00675 0.01828 0.00675 -1.14616" pbc="T T T"
Zr       3.00567000      10.00064000      10.00040000       5.98241100      -0.00632400      -0.00297100
Zr      10.26499000      10.00354000       9.99896000      -0.00347400       0.00467600      -0.00616200
Zr      17.52396000      10.00197000       9.99955000      -5.99120900      -0.00433200       0.00447300
Zr       0.00102000       9.99863000       9.99839000      -0.00497100      -0.00087800      -0.00010200
Zr       6.63741000      10.00166000      10.00157000       0.02385100      -0.00637000       0.00779400
Zr      13.89201000      10.00361000       9.99956000      -0.02313100       0.00226700       0.00041800
O        1.50353000      10.93151000       9.06921000       0.27146600      -0.19592500       0.19269200
O        8.46977000      10.85670000       9.14843000       0.01129900      -0.00964500       0.00957100
O       15.67358000      10.85967000       9.14481000      -0.02413900      -0.02167100       0.02193800
O        1.50337000       9.06756000      10.92965000       0.27292000       0.19587000      -0.19621500
O        8.45647000       9.14888000      10.85185000      -0.07069200       0.01101600      -0.00884600
O       15.67980000       9.14581000      10.85469000       0.00811800       0.02588200      -0.02514200
O        4.85677000      10.85620000      10.85747000       0.02675600      -0.02205700      -0.01844100
O       12.06901000      10.85519000      10.85333000       0.04420400      -0.00592800      -0.01341700
O       19.02806000      10.93026000      10.93092000      -0.26836800      -0.19345700      -0.19215700
O        4.85037000       9.14630000       9.14416000      -0.01102900       0.02031300       0.02448300
O       12.06539000       9.15162000       9.14574000       0.02090000       0.01261300       0.00488200
O       19.02440000       9.07012000       9.06684000      -0.26491400       0.19395100       0.19720200
18
Lattice="20.527634 0.0 0.0 0.0 20.0 0.0 0.0 0.0 20.0" Properties=species:S:1:pos:R:3:forces:R:3 energy=-150.71270968 stress="-94.80359 0.13867 0.02106 0.13867 -1.01967 0.00479 0.02106 0.00479 -1.01981" pbc="T T T"
Zr       3.00567000      10.00064000      10.00040000       5.98057400      -0.00977800      -0.00437000
Zr      10.26478000      10.00395000       9.99835000       0.00119700       0.00820500      -0.01165400
Zr      17.52396000      10.00197000       9.99955000      -5.99325600      -0.00573900       0.00608700
Zr       0.00102000       9.99863000       9.99839000      -0.00689300      -0.00127000       0.00003100
Zr       6.63646000      10.00114000      10.00228000       0.01218500      -0.00651700       0.01169200
Zr      13.89292000      10.00386000       9.99952000      -0.01593400       0.00681500      -0.00160500
O        1.50353000      10.93151000       9.06921000       0.27073300      -0.19517400       0.19087300
O        8.46961000      10.85585000       9.14927000       0.07042200       0.00333400      -0.00413200
O       15.67216000      10.85880000       9.14573000      -0.02308400       0.00114700      -0.00093100
O        1.50337000       9.06756000      10.92965000       0.27179400       0.19438100      -0.19575200
O        8.44873000       9.14978000      10.85108000      -0.05396900      -0.00413800       0.00604400
O       15.68147000       9.14702000      10.85355000       0.02808900       0.00432400      -0.00232500
O        4.85844000      10.85520000      10.85683000       0.02797700      -0.00379800       0.00267700
O       12.07426000      10.85468000      10.85214000       0.01091800       0.00966100      -0.00045400
O       19.02806000      10.93026000      10.93092000      -0.26579000      -0.19253600      -0.19040900
O        4.84846000       9.14709000       9.14536000      -0.02912000      -0.00049600       0.00725000
O       12.06852000       9.15276000       9.14619000      -0.02301600      -0.00069100      -0.00938900
O       19.02440000       9.07012000       9.06684000      -0.26282600       0.19227000       0.19636700
18
Lattice="20.527634 0.0 0.0 0.0 20.0 0.0 0.0 0.0 20.0" Properties=species:S:1:pos:R:3:forces:R:3 energy=-150.71293441 stress="-94.74682 0.17566 0.02239 0.17566 -0.93311 0.00235 0.02239 0.00235 -0.93175" pbc="T T T"
Zr       3.00567000      10.00064000      10.00040000       5.98052900      -0.01201100      -0.00547000
Zr      10.26464000      10.00423000       9.99793000       0.00480200       0.01090200      -0.01607800
Zr      17.52396000      10.00197000       9.99955000      -5.99518600      -0.00658800       0.00703400
Zr       0.00102000       9.99863000       9.99839000      -0.00780800      -0.00143000      -0.00003100
Zr       6.63581000      10.00079000      10.00277000       0.00455600      -0.00613200       0.01407100
Zr      13.89355000      10.00403000       9.99949000      -0.01114700       0.00990900      -0.00320500
O        1.50353000      10.93151000       9.06921000       0.26992600      -0.19445400       0.18933200
O        8.46950000      10.85527000       9.14985000       0.11077100       0.01167200      -0.01247200
O       15.67119000      10.85819000       9.14635000      -0.02053700       0.01671300      -0.01572700
O        1.50337000       9.06756000      10.92965000       0.27072400       0.19327100      -0.19543200
O        8.44340000       9.15041000      10.85056000      -0.04410900      -0.01419400       0.01549600
O       15.68262000       9.14786000      10.85277000       0.04222900      -0.01130000       0.01440500
O        4.85959000      10.85451000      10.85639000       0.02696900       0.00902300       0.01792700
O       12.07787000      10.85434000      10.85132000      -0.01127000       0.01928900       0.00962900
O       19.02806000      10.93026000      10.93092000      -0.26327500      -0.19166300      -0.18920300
O        4.84715000       9.14763000       9.14619000      -0.04391200      -0.01440900      -0.00666100
O       12.07068000       9.15354000       9.14650000      -0.05263200      -0.00963800      -0.01910000
O       19.02440000       9.07012000       9.06684000      -0.26063000       0.19104100       0.19548400
18
Lattice="20.527634 0.0 0.0 0.0 20.0 0.0 0.0 0.0 20.0" Properties=species:S:1:pos:R:3:forces:R:3 energy=-150.71364488 stress="-94.72653 0.22298 0.02507 0.22298 -0.92154 0.00322 0.02507 0.00322 -0.91913" pbc="T T T"
Zr       3.00567000      10.00064000      10.00040000       5.97920600      -0.01519800      -0.00671400
Zr      10.26465000      10.00465000       9.99730000       0.00602100       0.01276000      -0.01977100
Zr      17.52396000      10.00197000       9.99955000      -5.99599100      -0.00819600       0.00889200
Zr       0.00102000       9.99863000       9.99839000      -0.00872100      -0.00180000       0.00016300
Zr       6.63549000      10.00042000      10.00340000      -0.00010200      -0.00785500       0.01820700
Zr      13.89371000      10.00435000       9.99940000      -0.00747600       0.01218200      -0.00391500
O        1.50353000      10.93151000       9.06921000       0.26976600      -0.19451300       0.18832200
O        8.47185000      10.85515000       9.14995000       0.14122400       0.01301200      -0.01252600
O       15.67011000      10.85817000       9.14642000      -0.02631000       0.02028300      -0.01858400
O        1.50337000       9.06756000      10.92965000       0.27027300       0.19225300      -0.19547800
O        8.43900000       9.15050000      10.85056000      -0.05591000      -0.01372600       0.01572500
O       15.68429000       9.14816000      10.85259000       0.05111000      -0.01387500       0.01703900
O        4.86092000      10.85426000      10.85650000       0.03439700       0.01109300       0.02282000
O       12.07995000      10.85453000      10.85099000      -0.01562600       0.02193600       0.00821300
O       19.02806000      10.93026000      10.93092000      -0.26149100      -0.19158600      -0.18807800
O        4.84535000       9.14767000       9.14658000      -0.05381900      -0.01826600      -0.00857700
O       12.07092000       9.15383000       9.14628000      -0.06730400      -0.00842800      -0.02119100
O       19.02440000       9.07012000       9.06684000      -0.25924600       0.18992300       0.19545200
18
Lattice="20.527634 0.0 0.0 0.0 20.0 0.0 0.0 0.0 20.0" Properties=species:S:1:pos:R:3:forces:R:3 energy=-150.71683127 stress="-94.62113 0.36844 0.02937 0.36844 -0.87909 0.0034 0.02937 0.0034 -0.87284" pbc="T T T"
Zr       3.00567000      10.00064000      10.00040000       5.97056600      -0.02467400      -0.00988700
Zr      10.26468000      10.00590000       9.99543000       0.01417700       0.01918600      -0.03094700
Zr      17.52396000      10.00197000       9.99955000      -5.99484500      -0.01242900       0.01400400
Zr       0.00102000       9.99863000       9.99839000      -0.01244600      -0.00306900       0.00074600
Zr       6.63453000       9.99933000      10.00527000      -0.02297500      -0.01202800       0.02897700
Zr      13.89420000      10.00534000       9.99914000       0.00918600       0.01867300      -0.00629600
O        1.50353000      10.93151000       9.06921000       0.27069800      -0.19402000       0.18528600
O        8.47890000      10.85478000       9.15025000       0.23259200       0.01278700      -0.01343300
O       15.66688000      10.85810000       9.14661000      -0.04491300       0.03301800      -0.02813400
O        1.50337000       9.06756000      10.92965000       0.27009900       0.19033100      -0.19597000
O        8.42578000       9.15079000      10.85056000      -0.08824100      -0.01471600       0.01750800
O       15.68928000       9.14904000      10.85202000       0.07343900      -0.02283300       0.02613700
O        4.86491000      10.85352000      10.85682000       0.05809400       0.01926000       0.03732900
O       12.08620000      10.85512000      10.85003000      -0.02827200       0.02905300       0.00558600
O       19.02806000      10.93026000      10.93092000      -0.25660300      -0.19096100      -0.18528100
O        4.83993000       9.14777000       9.14775000      -0.08143200      -0.02960000      -0.01449400
O       12.07163000       9.15471000       9.14563000      -0.11343300      -0.00541500      -0.02638900
O       19.02440000       9.07012000       9.06684000      -0.25568900       0.18743800       0.19525800
18
Lattice="20.527634 0.0 0.0 0.0 20.0 0.0 0.0 0.0 20.0" Properties=species:S:1:pos:R:3:forces:R:3 energy=-150.72738025 stress="-94.2861 0.65324 0.04565 0.65324 -0.7946 0.01481 0.04565 0.01481 -0.77934" pbc="T T T"
Zr       3.00567000      10.00064000      10.00040000       5.96058900      -0.04269100      -0.01616300
Zr      10.26475000      10.00841000       9.99170000       0.04427800       0.03242800      -0.05753600
Zr      17.52396000      10.00197000       9.99955000      -5.99702500      -0.02126300       0.02407000
Zr       0.00102000       9.99863000       9.99839000      -0.01729000      -0.00537500       0.00178400
Zr       6.63260000       9.99715000      10.00901000      -0.07334900      -0.01723100       0.04419800
Zr      13.89517000      10.00730000       9.99860000       0.03020000       0.02875500      -0.01080200
O        1.50353000      10.93151000       9.06921000       0.26842000      -0.19391600       0.17868000
O        8.49300000      10.85405000       9.15085000       0.40530200       0.00718800      -0.00933500
O       15.66043000      10.85796000       9.14698000      -0.07732400       0.05774600      -0.04827900
O        1.50337000       9.06756000      10.92965000       0.26594800       0.18388300      -0.19567700
O        8.39936000       9.15135000      10.85056000      -0.16256600      -0.01126100       0.01914400
O       15.69926000       9.15081000      10.85089000       0.12843900      -0.03831100       0.04517400
O        4.87289000      10.85203000      10.85747000       0.10114300       0.03473400       0.06824000
O       12.09870000      10.85630000      10.84811000      -0.04348100       0.04254700       0.00359400
O       19.02806000      10.93026000      10.93092000      -0.24494700      -0.19007200      -0.17835700
O        4.82909000       9.14797000       9.15009000      -0.14125200      -0.05196200      -0.02586400
O       12.07307000       9.15648000       9.14432000      -0.20073900       0.00454100      -0.03724400
O       19.02440000       9.07012000       9.06684000      -0.24634500       0.18026000       0.19437400
18
Lattice="20.527634 0.0 0.0 0.0 20.0 0.0 0.0 0.0 20.0" Properties=species:S:1:pos:R:3:forces:R:3 energy=-150.76614781 stress="-93.1517 1.15193 0.10442 1.15193 -0.65108 0.04225 0.10442 0.04225 -0.60348" pbc="T T T"
Zr       3.00567000      10.00064000      10.00040000       5.91180200      -0.07655300      -0.02316800
Zr      10.26488000      10.01343000       9.98422000       0.16259700       0.05377500      -0.11021300