18
Lattice="21.527634 0.0 0.0 0.0 20.0 0.0 0.0 0.0 20.0" Properties=species:S:1:pos:R:3:forces:R:3 energy=-155.04191666 stress="-21.56787 0.06222 -0.05938 0.06222 -3.70237 0.25857 -0.05938 0.25857 -3.70136" pbc="T T T"
Zr       3.00567000      10.00064000      10.00040000       2.98153800       0.33048500      -0.33729700
Zr      12.30275000       9.70636000      10.29244000       0.91319900       0.45190700      -0.45109300
Zr      18.52396000      10.00197000       9.99955000      -2.84589900       0.00200500      -0.00283500
Zr       0.00102000       9.99863000       9.99839000       0.08808600      -0.06169300       0.05967100
Zr       6.14248000      10.21759000       9.78056000      -1.35134200      -0.45502100       0.45666900
Zr      15.36113000       9.97022000      10.03092000       0.50549000      -0.10897300       0.11025800
O        1.50353000      10.93151000       9.06921000       0.13605000      -0.10574000       0.10583300
O       11.31397000      10.76208000       9.23859000       0.32567500      -0.34002000       0.33904100
O       16.90765000      10.92077000       9.08398000       0.63091900      -0.51599500       0.51181600
O        1.50337000       9.06756000      10.92965000      -0.11325300       0.02969100      -0.02958700
O        7.09952000       9.14765000      10.84833000      -0.25211000       0.30843700      -0.30724400
O       16.91855000       9.05910000      10.94027000       0.52474200       0.49642100      -0.49546700
O        4.60307000      11.03764000      10.81535000      -0.63530600      -0.50679300      -0.46577700
O       13.84061000      10.76026000      11.09188000      -0.01779000      -0.29115700      -0.27914200
O       20.02806000      10.93026000      10.93092000      -0.11957200      -0.05988500      -0.07929800
O        4.60065000       9.18579000       8.96046000      -0.63476700       0.46613500       0.51058200
O       13.84174000       8.91023000       9.23754000      -0.01798000       0.27926700       0.29153500
O       20.02440000       9.07012000       9.06684000      -0.11767900       0.08093000       0.06233700
18
Lattice="21.527634 0.0 0.0 0.0 20.0 0.0 0.0 0.0 20.0" Properties=species:S:1:pos:R:3:forces:R:3 energy=-155.22035895 stress="-11.54152 -0.54288 0.53817 -0.54288 1.39638 -0.06456 0.53817 -0.06456 1.3937" pbc="T T T"
Zr       3.00567000      10.00064000      10.00040000       1.91697400       0.27827100      -0.28188000
Zr      12.34680000       9.72816000      10.27068000       0.07566200      -0.69090400       0.68893600
Zr      18.52396000      10.00197000       9.99955000      -2.06167300      -0.01431400       0.01289800
Zr       0.00102000       9.99863000       9.99839000       0.09283200      -0.06602900       0.06405000
Zr       6.07729000      10.19564000       9.80259000      -0.00382500       0.35421200      -0.35370600
Zr      15.38552000       9.96496000      10.03624000       0.05740700      -0.02463800       0.02471400
O        1.50353000      10.93151000       9.06921000       0.08244900      -0.05869300       0.05853700
O       11.32968000      10.74568000       9.25495000      -0.35104200       0.55487600      -0.55440100
O       16.93809000      10.89588000       9.10867000       0.28621800       0.02714700      -0.02767000
O        1.50337000       9.06756000      10.92965000      -0.18780100      -0.02170000       0.02138800
O        7.08736000       9.16253000      10.83350000       0.01804400      -0.23285500       0.23238800
O       16.94386000       9.08304000      10.91637000       0.32543500      -0.11943200       0.11898600
O        4.57242000      11.01319000      10.79288000      -0.86078100       0.16851900       0.42143000
O       13.83975000      10.74621000      11.07841000       0.79406100       0.30612900       0.06850800
O       20.02806000      10.93026000      10.93092000      -0.05964400      -0.01112600      -0.03569400
O        4.57003000       9.20828000       8.98509000      -0.86116400      -0.42024800      -0.16611900
O       13.84087000       8.92370000       9.25160000       0.79481600      -0.06639200      -0.30565700
O       20.02440000       9.07012000       9.06684000      -0.05797000       0.03717500       0.01329300
18
Lattice="21.527634 0.0 0.0 0.0 20.0 0.0 0.0 0.0 20.0" Properties=species:S:1:pos:R:3:forces:R:3 energy=-155.22272262 stress="-12.62913 -0.4733 0.472 -0.4733 0.86195 -0.0526 0.472 -0.0526 0.85747" pbc="T T T"
Zr       3.00567000      10.00064000      10.00040000       2.03655900       0.28406200      -0.28795200
Zr      12.34238000       9.72597000      10.27286000       0.16913700      -0.57322400       0.57152000
Zr      18.52396000      10.00197000       9.99955000      -2.14950600      -0.01213900       0.01086800
Zr       0.00102000       9.99863000       9.99839000       0.09242700      -0.06560700       0.06370600
Zr       6.08384000      10.19784000       9.80038000      -0.15487400       0.27480200      -0.27340500
Zr      15.38307000       9.96549000      10.03570000       0.10374100      -0.03379500       0.03421100
O        1.50353000      10.93151000       9.06921000       0.08751900      -0.06359000       0.06354400
O       11.32810000      10.74732000       9.25331000      -0.27554400       0.46232200      -0.46107800
O       16.93503000      10.89838000       9.10619000       0.32419500      -0.03219000       0.02991700
O        1.50337000       9.06756000      10.92965000      -0.18054800      -0.01639300       0.01620800
O        7.08858000       9.16104000      10.83499000      -0.01097100      -0.18005400       0.17977000
O       16.94132000       9.08064000      10.91877000       0.34743800      -0.05357600       0.05386200
O        4.57550000      11.01565000      10.79514000      -0.83485300       0.09224700       0.32345800
O       13.83984000      10.74762000      11.07976000       0.70457000       0.24071300       0.02834600
O       20.02806000      10.93026000      10.93092000      -0.06610700      -0.01619400      -0.04008600
O        4.57310000       9.20602000       8.98262000      -0.83527400      -0.32282200      -0.09040400
O       13.84096000       8.92235000       9.25019000       0.70649800      -0.02622500      -0.24095700
O       20.02440000       9.07012000       9.06684000      -0.06440900       0.04166400       0.01847200
18
Lattice="21.527634 0.0 0.0 0.0 20.0 0.0 0.0 0.0 20.0" Properties=species:S:1:pos:R:3:forces:R:3 energy=-155.29172843 stress="-9.95184 1.41114 -1.41792 1.41114 0.27901 1.46451 -1.41792 1.46451 0.28592" pbc="T T T"
Zr       3.00567000      10.00064000      10.00040000       0.69601800       0.17129400      -0.17122700
Zr      12.37378000       9.71046000      10.28832000      -0.76703300       0.74304100      -0.74234000
Zr      18.52396000      10.00197000       9.99955000      -1.37302000      -0.05799300       0.05628500
Zr       0.00102000       9.99863000       9.99839000       0.12330300      -0.06801600       0.06641400
Zr       6.04189000      10.19917000       9.79915000       0.29720400      -0.25737900       0.25682200
Zr      15.40093000       9.96110000      10.04015000       0.49076700       0.09217200      -0.09174200
O        1.50353000      10.93151000       9.06921000      -0.00334700      -0.00398200       0.00391200
O       11.32343000      10.76047000       9.24020000       0.86459400      -0.75219000       0.75094500
O       16.96652000      10.88363000       9.12072000      -0.14598400       0.33198100      -0.33159500
O        1.50337000       9.06756000      10.92965000      -0.28012800      -0.07223000       0.07191100
O        7.08160000       9.16043000      10.83562000      -0.56510000       0.34982100      -0.35017000
O       16.97119000       9.09083000      10.90862000      -0.02886800      -0.40858400       0.40772700
O        4.51975000      11.00702000      10.79849000      -0.03802600       0.34875100       0.47249400
O       13.87269000      10.75154000      11.07395000       0.39070100       0.15212300       0.12923500
O       20.02806000      10.93026000      10.93092000      -0.00768900       0.03578000       0.00660700
O        4.51735000       9.20270000       8.99143000      -0.03646300      -0.47184100      -0.34972000
O       13.87389000       8.92827000       9.24627000       0.38919500      -0.12775500      -0.15200700
O       20.02440000       9.07012000       9.06684000      -0.00612400      -0.00499400      -0.03355000
18
Lattice="21.527634 0.0 0.0 0.0 20.0 0.0 0.0 0.0 20.0" Properties=species:S:1:pos:R:3:forces:R:3 energy=-155.30045612 stress="-10.70254 0.96452 -0.96778 0.96452 0.37226 1.10465 -0.96778 1.10465 0.3744" pbc="T T T"
Zr       3.00567000      10.00064000      10.00040000       1.05941900       0.20116600      -0.20218700
Zr      12.36588000       9.71436000      10.28443000      -0.55746800       0.44005600      -0.43992000
Zr      18.52396000      10.00197000       9.99955000      -1.58196800      -0.04523000       0.04364600
Zr       0.00102000       9.99863000       9.99839000       0.11530200      -0.06754900       0.06588100
Zr       6.05244000      10.19884000       9.79946000       0.18395300      -0.12913000       0.12941500
Zr      15.39643000       9.96220000      10.03903000       0.39235700       0.06111000      -0.06054500
O        1.50353000      10.93151000       9.06921000       0.01961700      -0.01954100       0.01949000
O       11.32460000      10.75716000       9.24350000       0.60275700      -0.47477500       0.47393800
O       16.95860000      10.88734000       9.11706000      -0.01901300       0.23394500      -0.23482200
O        1.50337000       9.06756000      10.92965000      -0.25497300      -0.05799100       0.05771800
O        7.08335000       9.16058000      10.83546000      -0.42620700       0.22094600      -0.22164100
O       16.96368000       9.08826000      10.91117000       0.06810700      -0.31425500       0.31424700
O        4.53378000      11.00919000      10.79765000      -0.25015000       0.27439600       0.42577300
O       13.86443000      10.75055000      11.07541000       0.47083300       0.17485600       0.10306100
O       20.02806000      10.93026000      10.93092000      -0.02314000       0.02222100      -0.00527900
O        4.53138000       9.20354000       8.98921000      -0.24914500      -0.42590700      -0.27464200
O       13.86561000       8.92678000       9.24726000       0.47126000      -0.10121500      -0.17416700
O       20.02440000       9.07012000       9.06684000      -0.02154000       0.00689500      -0.01996700
18
Lattice="21.527634 0.0 0.0 0.0 20.0 0.0 0.0 0.0 20.0" Properties=species:S:1:pos:R:3:forces:R:3 energy=-155.35274419 stress="-9.04426 -0.12433 0.11409 -0.12433 0.89671 -0.64566 0.11409 -0.64566 0.89809" pbc="T T T"
Zr       3.00567000      10.00064000      10.00040000       0.16293100       0.12834400      -0.12804800
Zr      12.36339000       9.72245000      10.27630000       1.17141700      -0.17802200       0.17878700
Zr      18.52396000      10.00197000       9.99955000      -1.09994200      -0.10284600       0.10048700
Zr       0.00102000       9.99863000       9.99839000       0.15254900      -0.06659100       0.06479300
Zr       6.03237000      10.19433000       9.80405000      -0.68544300       0.11135500      -0.11032100
Zr      15.42461000       9.96185000      10.03944000       0.04626800       0.00194700      -0.00155700
O        1.50353000      10.93151000       9.06921000      -0.05830300       0.02293100      -0.02330400
O       11.34665000      10.74605000       9.25460000      -0.07588100       0.20409500      -0.20328100
O       16.97864000      10.88735000       9.11688000      -0.13825600       0.33559800      -0.33459900
O        1.50337000       9.06756000      10.92965000      -0.32426000      -0.09272900       0.09216100
O        7.06096000       9.16940000      10.82663000      -0.16314700      -0.03979000       0.04027400
O       16.98628000       9.08190000      10.91756000      -0.01547200      -0.31296800       0.31185400
O        4.48647000      11.01493000      10.81763000       0.55237800       0.14917900       0.21129700
O       13.90579000      10.76044000      11.07586000      -0.04337200      -0.05250800      -0.06881900
O       20.02806000      10.93026000      10.93092000       0.00257500       0.05168400       0.01859400
O        4.48411000       9.18358000       8.98358000       0.55482800      -0.21155500      -0.15131100
O       13.90705000       8.92647000       9.23740000      -0.04300900       0.06917400       0.05270400
O       20.02440000       9.07012000       9.06684000       0.00413800      -0.01729800      -0.04971200
18
Lattice="21.527634 0.0 0.0 0.0 20.0 0.0 0.0 0.0 20.0" Properties=species:S:1:pos:R:3:forces:R:3 energy=-155.35725658 stress="-9.45416 0.12558 -0.13485 0.12558 0.74551 -0.26562 -0.13485 -0.26562 0.74668" pbc="T T T"
Zr       3.00567000      10.00064000      10.00040000       0.36636300       0.14440000      -0.14411200
Zr      12.36394000       9.72068000      10.27809000       0.79515400      -0.02774000       0.02874900
Zr      18.52396000      10.00197000       9.99955000      -1.20802900      -0.08981000       0.08791500
Zr       0.00102000       9.99863000       9.99839000       0.14483800      -0.06688600       0.06541100
Zr       6.03677000      10.19532000       9.80305000      -0.50373200       0.05565400      -0.05466500
Zr      15.41843000       9.96193000      10.03935000       0.12287100       0.01464700      -0.01355200
O        1.50353000      10.93151000       9.06921000      -0.04095300       0.01353600      -0.01354200
O       11.34181000      10.74848000       9.25216000       0.08158000       0.04445800      -0.04469400
O       16.97424000      10.88735000       9.11692000      -0.11192800       0.31212500      -0.31354200
O        1.50337000       9.06756000      10.92965000      -0.30890400      -0.08531700       0.08510700
O        7.06587000       9.16747000      10.82856000      -0.22288400       0.02093200      -0.02023900
O       16.98132000       9.08329000      10.91616000       0.00492400      -0.31307900       0.31176700
O        4.49684000      11.01367000      10.81324000       0.37849200       0.16970900       0.25189800
O       13.89672000      10.75827000      11.07576000       0.06331300      -0.00859000      -0.03453900
O       20.02806000      10.93026000      10.93092000      -0.00278300       0.04511100       0.01374300
O        4.49447000       9.18796000       8.98482000       0.38040800      -0.25090700      -0.17153700
O       13.89796000       8.92654000       9.23956000       0.06248300       0.03383900       0.00861600
O       20.02440000       9.07012000       9.06684000      -0.00121200      -0.01208200      -0.04278400
18
Lattice="21.527634 0.0 0.0 0.0 20.0 0.0 0.0 0.0 20.0" Properties=species:S:1:pos:R:3:forces:R:3 energy=-155.4099404 stress="-7.91763 0.33351 -0.34039 0.33351 -0.16323 -0.17763 -0.34039 -0.17763 -0.164" pbc="T T T"
Zr       3.00567000      10.00064000      10.00040000       0.20591700       0.11155200      -0.11289500
Zr      12.39445000       9.72346000      10.27533000       0.51270600      -0.02771500       0.02855700
Zr      18.52396000      10.00197000       9.99955000      -1.12183900      -0.09455100       0.09163900
Zr       0.00102000       9.99863000       9.99839000       0.13385400      -0.06577000       0.06384900
Zr       6.00702000      10.19537000       9.80307000      -0.06795700       0.08040200      -0.07963300
Zr      15.43688000       9.96234000      10.03901000       0.13374200      -0.02089200       0.01983000
O        1.50353000      10.93151000       9.06921000      -0.01963200       0.00586400      -0.00623200
O       11.35567000      10.74491000       9.25572000       0.14894000       0.00986000      -0.00953300
O       16.97941000      10.89980000       9.10433000      -0.05478000       0.07914300      -0.07803400
O        1.50337000       9.06756000      10.92965000      -0.27683500      -0.06747000       0.06701200
O        7.04621000       9.17254000      10.82351000      -0.22429000       0.01208800      -0.01024300
O       16.99238000       9.06774000      10.93167000       0.00155700      -0.03083900       0.03173000
O        4.48919000      11.02320000      10.83290000       0.21626200      -0.04935000       0.02835700
O       13.91914000      10.76268000      11.07460000       0.11022600       0.01152800      -0.04322100
O       20.02806000      10.93026000      10.93092000      -0.01388600       0.03363700       0.00244100
O        4.48692000       9.16835000       8.97527000       0.21761400      -0.03010700       0.05001300
O       13.92038000       8.92774000       9.23517000       0.11073300       0.04383300      -0.01206700
O       20.02440000       9.07012000       9.06684000      -0.01233100      -0.00121200      -0.03157000
18
Lattice="21.527634 0.0 0.0 0.0 20.0 0.0 0.0 0.0 20.0" Properties=species:S:1:pos:R:3:forces:R:3 energy=-155.42159842 stress="-6.79308 0.48748 -0.49712 0.48748 -0.82661 -0.10695 -0.49712 -0.10695 -0.82602" pbc="T T T"
Zr       3.00567000      10.00064000      10.00040000       0.07776000       0.08721500      -0.08909800
Zr      12.41674000       9.72550000      10.27331000       0.30002200      -0.02645500       0.02692000
Zr      18.52396000      10.00197000       9.99955000      -1.05302100      -0.09829300       0.09522100
Zr       0.00102000       9.99863000       9.99839000       0.12591700      -0.06448800       0.06284000
Zr       5.98530000      10.19541000       9.80309000       0.25105400       0.10023900      -0.09920100
Zr      15.45036000       9.96264000      10.03876000       0.14211700      -0.04632200       0.04442000
O        1.50353000      10.93151000       9.06921000      -0.00376600       0.00039000      -0.00042500
O       11.36579000      10.74231000       9.25831000       0.20027700      -0.01485700       0.01446100
O       16.98319000      10.90889000       9.09513000      -0.01634200      -0.08553000       0.08582900
O        1.50337000       9.06756000      10.92965000      -0.25266200      -0.05398000       0.05393600
O        7.03186000       9.17624000      10.81982000      -0.22491700       0.01042900      -0.01115900
O       17.00046000       9.05639000      10.94299000      -0.00131200       0.16603300      -0.16436700
O        4.48360000      11.03016000      10.84725000       0.10287000      -0.20398100      -0.12451600
O       13.93551000      10.76590000      11.07376000       0.14530200       0.02659800      -0.04686300
O       20.02806000      10.93026000      10.93092000      -0.02213100       0.02541600      -0.00576800
O        4.48140000       9.15404000       8.96830000       0.10513100       0.12389300       0.20500400
O       13.93675000       8.92861000       9.23196000       0.14428700       0.04641400      -0.02429100
O       20.02440000       9.07012000       9.06684000      -0.02058600       0.00728000      -0.02294200
18
Lattice="21.527634 0.0 0.0 0.0 20.0 0.0 0.0 0.0 20.0" Properties=species:S:1:pos:R:3:forces:R:3 energy=-155.44100937 stress="-5.33459 0.39943 -0.40698 0.39943 -0.38514 -0.14564 -0.40698 -0.14564 -0.38603" pbc="T T T"
Zr       3.00567000      10.00064000      10.00040000       0.14371500       0.06654600      -0.06912800
Zr      12.44033000       9.72519000      10.27365000      -0.00926000       0.02835400      -0.02649700
Zr      18.52396000      10.00197000       9.99955000      -0.88086800      -0.06114100       0.05841700
Zr       0.00102000       9.99863000       9.99839000       0.15888100      -0.06339900       0.06189400
Zr       5.98716000      10.20001000       9.79857000       0.09552600       0.22370500      -0.22211000
Zr      15.46282000       9.96066000      10.04068000       0.01196700       0.03180500      -0.03216400
O        1.50353000      10.93151000       9.06921000      -0.02616300       0.00521100      -0.00515600
O       11.37942000      10.74047000       9.26012000       0.26707100      -0.08245200       0.08208700
O       16.98412000      10.90901000       9.09498000       0.03964000      -0.05394100       0.05451400
O        1.50337000       9.06756000      10.92965000      -0.27120500      -0.05502300       0.05513100
O        7.01522000       9.17836000      10.81767000      -0.03729300      -0.14706200       0.14645400
O       17.00398000       9.05895000      10.94050000       0.07947400       0.05055100      -0.04985500
O        4.48583000      11.02392000      10.84791000       0.06339400      -0.12668900      -0.09675200
O       13.94940000      10.76854000      11.07124000       0.18601700       0.06950300       0.01341100
O       20.02806000      10.93026000      10.93092000      -0.03759200       0.02584800      -0.00266900
O        4.48376000       9.15336000       8.97458000       0.06442900       0.09678500       0.12728400
O       13.95060000       8.93112000       9.22942000       0.18832400      -0.01287900      -0.07164800
O       20.02440000       9.07012000       9.06684000      -0.03606100       0.00427800      -0.02321300
18
Lattice="21.527634 0.0 0.0 0.0 20.0 0.0 0.0 0.0 20.0" Properties=species:S:1:pos:R:3:forces:R:3 energy=-155.44925722 stress="-3.54022 0.28941 -0.29414 0.28941 0.16679 -0.21492 -0.29414 -0.21492 0.1696" pbc="T T T"
Zr       3.00567000      10.00064000      10.00040000       0.22380100       0.04149600      -0.04538000
Zr      12.46900000       9.72482000      10.27406000      -0.39488000       0.08603200      -0.08357000
Zr      18.52396000      10.00197000       9.99955000      -0.66638400      -0.01432500       0.01159900
Zr       0.00102000       9.99863000       9.99839000       0.19863300      -0.06219900       0.06043800
Zr       5.98941000      10.20559000       9.79307000      -0.09424100       0.37993300      -0.37892900
Zr      15.47797000       9.95825000      10.04301000      -0.16437900       0.13023600      -0.12923600
O        1.50353000      10.93151000       9.06921000      -0.05333700       0.01093400      -0.01119900
O       11.39600000      10.73824000       9.26232000       0.35331800      -0.16154600       0.16100200
O       16.98524000      10.90915000       9.09479000       0.10972300      -0.01369200       0.01396600
O        1.50337000       9.06756000      10.92965000      -0.29374000      -0.05638300       0.05624600
O        6.99499000       9.18094000      10.81507000       0.19223800      -0.34337400       0.34295500
O       17.00826000       9.06206000      10.93747000       0.18241700      -0.09751600       0.09816000
O        4.48854000      11.01633000      10.84873000       0.01758400      -0.03120700      -0.06110000
O       13.96629000      10.77176000      11.06818000       0.24144300       0.12833900       0.08612800
O       20.02806000      10.93026000      10.93092000      -0.05647600       0.02626400       0.00080600
O        4.48663000       9.15253000       8.98221000       0.01742700       0.06210300       0.03206900
O       13.96743000       8.93418000       9.22635000       0.24181600      -0.08558400      -0.13009100
O       20.02440000       9.07012000       9.06684000      -0.05496300       0.00049000      -0.02386400
18
Lattice="21.527634 0.0 0.0 0.0 20.0 0.0 0.0 0.0 20.0" Properties=species:S:1:pos:R:3:forces:R:3 energy=-155.45793873 stress="-3.19494 0.3324 -0.3336 0.3324 0.19277 -0.15698 -0.3336 -0.15698 0.19077" pbc="T T T"
Zr       3.00567000      10.00064000      10.00040000       0.21962300       0.02524300      -0.02925500
Zr      12.47573000       9.72543000      10.27347000      -0.29449800      -0.00283100       0.00548200
Zr      18.52396000      10.00197000       9.99955000      -0.61222300      -0.00828900       0.00576400
Zr       0.00102000       9.99863000       9.99839000       0.18519000      -0.06274700       0.06108400
Zr       5.98938000      10.21089000       9.78782000       0.00584100       0.20059700      -0.19951200
Zr      15.48192000       9.95853000      10.04272000      -0.15392800       0.13125700      -0.12881300
O        1.50353000      10.93151000       9.06921000      -0.04949200       0.01312300      -0.01330700
O       11.40496000      10.73605000       9.26451000       0.26149400      -0.07112100       0.07121300
O       16.98660000      10.90909000       9.09485000       0.12230500       0.00909900      -0.00867300
O        1.50337000       9.06756000      10.92965000      -0.28943000      -0.05610000       0.05606600
O        6.98949000       9.17886000      10.81713000       0.08436300      -0.19979900       0.19944200
O       17.01137000       9.06231000      10.93725000       0.18358900      -0.11873700       0.11880600
O        4.48965000      11.01337000      10.84848000       0.02385600       0.01546900      -0.06080400
O       13.97438000      10.77401000      11.06785000       0.19172500       0.12125600       0.08336000
O       20.02806000      10.93026000      10.93092000      -0.04720800       0.02817500       0.00397700
O        4.48780000       9.15278000       8.98520000       0.02160800       0.06242300      -0.01592600
O       13.97551000       8.93451000       9.22412000       0.19287800      -0.08438300      -0.12319700
O       20.02440000       9.07012000       9.06684000      -0.04569500      -0.00263400      -0.02570700
18
Lattice="21.527634 0.0 0.0 0.0 20.0 0.0 0.0 0.0 20.0" Properties=species:S:1:pos:R:3:forces:R:3 energy=-155.46444768 stress="-2.50576 0.39562 -0.39723 0.39562 0.2332 -0.04688 -0.39723 -0.04688 0.23702" pbc="T T T"
Zr       3.00567000      10.00064000      10.00040000       0.21208500      -0.00492600       0.00035200
Zr      12.48862000       9.72661000      10.27236000      -0.09719400      -0.17744700       0.17981500
Zr      18.52396000      10.00197000       9.99955000      -0.50617800       0.00447000      -0.00690800
Zr       0.00102000       9.99863000       9.99839000       0.15997300      -0.06315500       0.06138300
Zr       5.98934000      10.22102000       9.77776000       0.18442400      -0.14680300       0.14668100
Zr      15.48947000       9.95906000      10.04215000      -0.13547300       0.13169300      -0.12848800
O        1.50353000      10.93151000       9.06921000      -0.04161800       0.01793700      -0.01826600
O       11.42211000      10.73184000       9.26869000       0.08868000       0.10227600      -0.10214200
O       16.98919000      10.90896000       9.09496000       0.14956200       0.05451300      -0.05273400
O        1.50337000       9.06756000      10.92965000      -0.28073600      -0.05498400       0.05484400
O        6.97895000       9.17488000      10.82107000      -0.11323100       0.07721700      -0.07496100
O       17.01731000       9.06280000      10.93682000       0.18374000      -0.16157200       0.16162700
O        4.49178000      11.00769000      10.84801000       0.03370800       0.10816900      -0.05954800
O       13.98988000      10.77833000      11.06720000       0.09394100       0.10847700       0.07900700
O       20.02806000      10.93026000      10.93092000      -0.02895700       0.03246600       0.00913600
O        4.49004000       9.15325000       8.99092000       0.03167600       0.06156600      -0.10751800
O       13.99098000       8.93516000       9.21986000       0.09304300      -0.08189500      -0.11210900
O       20.02440000       9.07012000       9.06684000      -0.02744400      -0.00800300      -0.03017000
18
Lattice="21.527634 0.0 0.0 0.0 20.0 0.0 0.0 0.0 20.0" Properties=species:S:1:pos:R:3:forces:R:3 energy=-155.46891118 stress="-2.62872 0.38161 -0.37818 0.38161 0.15325 -0.07913 -0.37818 -0.07913 0.15506" pbc="T T T"
Zr       3.00567000      10.00064000      10.00040000       0.23853500      -0.00237700      -0.00148500
Zr      12.49073000       9.72477000      10.27424000      -0.02751300      -0.13030600       0.13079500
Zr      18.52396000      10.00197000       9.99955000      -0.48171400      -0.00781300       0.00577300
Zr       0.00102000       9.99863000       9.99839000       0.14505500      -0.06346400       0.06206200
Zr       5.99155000      10.22182000       9.77697000       0.09080900      -0.10456400       0.10517400
Zr      15.48976000       9.96078000      10.04046000      -0.00544800       0.09078200      -0.08903000
O        1.50353000      10.93151000       9.06921000      -0.03684100       0.01868900      -0.01866300
O       11.42753000      10.73200000       9.26852000       0.10815700       0.07359800      -0.07333100
O       16.99165000      10.90958000       9.09435000       0.11845300       0.05476900      -0.05391100
O        1.50337000       9.06756000      10.92965000      -0.27610000      -0.05610900       0.05631000
O        6.97491000       9.17480000      10.82117000      -0.05239700       0.02583100      -0.02424900
O       17.02104000       9.06098000      10.93866000       0.11059100      -0.10942000       0.10943600
O        4.49273000      11.00755000      10.84718000       0.03589200       0.11382400      -0.05960100
O       13.99495000      10.78074000      11.06799000       0.01703700       0.06360700       0.05189900
O       20.02806000      10.93026000      10.93092000      -0.01751200       0.03503900       0.01212700
O        4.49099000       9.15412000       8.99108000       0.03351600       0.06155400      -0.11405200
O       13.99603000       8.93434000       9.21743000       0.01545900      -0.05298600      -0.06684100
O       20.02440000       9.07012000       9.06684000      -0.01597800      -0.01065400      -0.03241300
18
Lattice="21.527634 0.0 0.0 0.0 20.0 0.0 0.0 0.0 20.0" Properties=species:S:1:pos:R:3:forces:R:3 energy=-155.47186846 stress="-2.81246 0.34203 -0.34444 0.34203 0.02688 -0.13418 -0.34444 -0.13418 0.02959" pbc="T T T"
Zr       3.00567000      10.00064000      10.00040000       0.28075300       0.00199200      -0.00554200
Zr      12.49406000       9.72187000      10.27722000       0.08152500      -0.05590900       0.05450500