18
Lattice="19.027634 0.0 0.0 0.0 20.0 0.0 0.0 0.0 20.0" Properties=species:S:1:pos:R:3:forces:R:3 energy=-158.16659604 stress="-46.31036 -0.01163 0.00345 -0.01163 -3.56038 -0.00038 0.00345 -0.00038 -3.55666" pbc="T T T"
Zr       3.00567000      10.00064000      10.00040000       4.15079800       0.00273300      -0.00275200
Zr       9.51476000      10.00372000      10.00049000       0.00420500      -0.00137400      -0.00063700
Zr      16.02396000      10.00197000       9.99955000      -4.14943700      -0.00008400       0.00044400
Zr       0.00102000       9.99863000       9.99839000      -0.00052700       0.00022400      -0.00000500
Zr       6.30111000      10.00360000       9.99922000      -0.45344800      -0.00282800       0.00293800
Zr      12.72871000      10.00286000      10.00025000       0.44906100       0.00004700      -0.00092000
O        1.50353000      10.93151000       9.06921000       0.17920200      -0.13758800       0.13714800
O        7.90894000      10.91344000       9.09327000       0.04377300      -0.29567500       0.29250600
O       14.33382000      10.91248000       9.09217000       0.52633500      -0.45695500       0.45441000
O        1.50337000       9.06756000      10.92965000       0.18034800       0.13763900      -0.13856300
O        7.90778000       9.09431000      10.90663000       0.04430900       0.29471200      -0.29289600
O       14.33383000       9.09260000      10.90772000       0.52701300       0.45565400      -0.45462100
O        4.69556000      10.90988000      10.90968000      -0.52629700      -0.45413100      -0.45460300
O       11.12184000      10.91020000      10.90981000      -0.04433000      -0.29467400      -0.29560700
O       17.52806000      10.93026000      10.93092000      -0.18355300      -0.13464300      -0.13485200
O        4.69633000       9.09441000       9.08980000      -0.52629900       0.45477200       0.45575300
O       11.12094000       9.09625000       9.09122000      -0.04391500       0.29503000       0.29462100
O       17.52440000       9.07012000       9.06684000      -0.17723500       0.13713900       0.13763700
18
Lattice="19.027634 0.0 0.0 0.0 20.0 0.0 0.0 0.0 20.0" Properties=species:S:1:pos:R:3:forces:R:3 energy=-158.27441614 stress="-43.68393 -0.01162 0.00468 -0.01162 -0.6342 0.00622 0.00468 0.00622 -0.63262" pbc="T T T"
Zr       3.00567000      10.00064000      10.00040000       3.66634700       0.00270500      -0.00229900
Zr       9.51496000      10.00365000      10.00046000      -0.00542600      -0.00022700      -0.00038900
Zr      16.02396000      10.00197000       9.99955000      -3.66536300      -0.00031900       0.00042400
Zr       0.00102000       9.99863000       9.99839000      -0.00069400       0.00017100       0.00009500
Zr       6.27923000      10.00346000       9.99936000       0.14364500       0.00011100       0.00091800
Zr      12.75037000      10.00286000      10.00021000      -0.13774900       0.00104800       0.00053600
O        1.50353000      10.93151000       9.06921000       0.12129800      -0.09663800       0.09607200
O        7.91105000      10.89918000       9.10738000      -0.20485300      -0.02467900       0.02209900
O       14.35921000      10.89043000       9.11409000       0.36053200       0.03043800      -0.03008300
O        1.50337000       9.06756000      10.92965000       0.12238900       0.09629200      -0.09754100
O        7.90992000       9.10852000      10.89250000      -0.20433300       0.02034000      -0.02142600
O       14.35926000       9.11458000      10.88579000       0.36057000      -0.02952300       0.02922100
O        4.67017000      10.88797000      10.88775000      -0.36149400       0.03042000       0.03206900
O       11.11970000      10.89598000      10.89555000       0.20544200      -0.02056900      -0.02066100
O       17.52806000      10.93026000      10.93092000      -0.12495900      -0.09377200      -0.09370200
O        4.67094000       9.11635000       9.11179000      -0.36282700      -0.03037500      -0.03103500
O       11.11882000       9.11049000       9.10543000       0.20623700       0.01879400       0.01927900
O       17.52440000       9.07012000       9.06684000      -0.11876300       0.09578100       0.09642200
18
Lattice="19.027634 0.0 0.0 0.0 20.0 0.0 0.0 0.0 20.0" Properties=species:S:1:pos:R:3:forces:R:3 energy=-158.2763309 stress="-43.23069 -0.01175 0.0042 -0.01175 -0.16534 0.00553 0.0042 0.00553 -0.16265" pbc="T T T"
Zr       3.00567000      10.00064000      10.00040000       3.58343700       0.00299300      -0.00231900
Zr       9.51499000      10.00364000      10.00046000      -0.00688000       0.00023900      -0.00045400
Zr      16.02396000      10.00197000       9.99955000      -3.58241400      -0.00005800       0.00030700
Zr       0.00102000       9.99863000       9.99839000      -0.00065600       0.00045000       0.00000800
Zr       6.27592000      10.00344000       9.99938000       0.23817300       0.00067000       0.00058600
Zr      12.75365000      10.00286000      10.00020000      -0.23055900       0.00126000       0.00039400
O        1.50353000      10.93151000       9.06921000       0.11134900      -0.08985100       0.08945700
O        7.91137000      10.89702000       9.10952000      -0.24443600       0.01790100      -0.02058700
O       14.36306000      10.88709000       9.11741000       0.33271600       0.10961900      -0.10933900
O        1.50337000       9.06756000      10.92965000       0.11243100       0.09004000      -0.09114500
O        7.91024000       9.11068000      10.89036000      -0.24202000      -0.02316200       0.02239900
O       14.36311000       9.11791000      10.88247000       0.33297700      -0.10887700       0.10826800
O        4.66633000      10.88465000      10.88443000      -0.33464800       0.10812700       0.10927100
O       11.11938000      10.89383000      10.89339000       0.24380800       0.02183000       0.02149300
O       17.52806000      10.93026000      10.93092000      -0.11479500      -0.08696500      -0.08725700
O        4.66709000       9.11968000       9.11512000      -0.33482000      -0.10890800      -0.10668300
O       11.11850000       9.11264000       9.10759000       0.24495600      -0.02481100      -0.02416000
O       17.52440000       9.07012000       9.06684000      -0.10861900       0.08950400       0.08976100
18
Lattice="19.027634 0.0 0.0 0.0 20.0 0.0 0.0 0.0 20.0" Properties=species:S:1:pos:R:3:forces:R:3 energy=-158.29139835 stress="-43.18475 -0.01211 0.00072 -0.01211 -0.0246 -0.00244 0.00072 -0.00244 -0.02519" pbc="T T T"
Zr       3.00567000      10.00064000      10.00040000       3.34889300       0.00278900      -0.00163400
Zr       9.51470000      10.00364000      10.00043000       0.00842500      -0.00244900      -0.00069200
Zr      16.02396000      10.00197000       9.99955000      -3.34750500      -0.00009000      -0.00007800
Zr       0.00102000       9.99863000       9.99839000      -0.00027000       0.00025500      -0.00000100
Zr       6.28257000      10.00344000       9.99944000      -0.54091400      -0.00156000       0.00151200
Zr      12.74733000      10.00292000      10.00021000       0.53245200      -0.00061100      -0.00086500
O        1.50353000      10.93151000       9.06921000       0.06159300      -0.05914200       0.05834400
O        7.89972000      10.89453000       9.11183000      -0.00856200       0.04980100      -0.05261600
O       14.38561000      10.88732000       9.11717000      -0.07007900       0.09208100      -0.09109800
O        1.50337000       9.06756000      10.92965000       0.06274400       0.05865700      -0.06025300
O        7.89872000       9.11290000      10.88813000      -0.00724000      -0.05160900       0.05119400
O       14.38568000       9.11771000      10.88266000      -0.07011500      -0.09186800       0.09257500
O        4.64368000      10.88483000      10.88467000       0.07259700       0.09182600       0.09281700
O       11.13099000      10.89155000      10.89108000       0.00585700       0.05016100       0.04981800
O       17.52806000      10.93026000      10.93092000      -0.06623600      -0.05650800      -0.05640700
O        4.64444000       9.11946000       9.11503000       0.07089500      -0.09151800      -0.09182900
O       11.13017000       9.11478000       9.10975000       0.00752100      -0.04850800      -0.04959700
O       17.52440000       9.07012000       9.06684000      -0.06005500       0.05829600       0.05881000
18
Lattice="19.027634 0.0 0.0 0.0 20.0 0.0 0.0 0.0 20.0" Properties=species:S:1:pos:R:3:forces:R:3 energy=-158.29307719 stress="-43.22599 -0.00993 0.00297 -0.00993 -0.07129 -0.00016 0.00297 -0.00016 -0.07" pbc="T T T"
Zr       3.00567000      10.00064000      10.00040000       3.40776900       0.00306700      -0.00183500
Zr       9.51477000      10.00364000      10.00044000       0.00475800      -0.00157400      -0.00066300
Zr      16.02396000      10.00197000       9.99955000      -3.40650400       0.00014500      -0.00000400
Zr       0.00102000       9.99863000       9.99839000      -0.00040200       0.00053800      -0.00002600
Zr       6.28097000      10.00344000       9.99943000      -0.35655100      -0.00040700       0.00109800
Zr      12.74885000      10.00291000      10.00021000       0.35156200      -0.00007800      -0.00047000
O        1.50353000      10.93151000       9.06921000       0.07385400      -0.06638900       0.06589500
O        7.90253000      10.89513000       9.11128000      -0.06541700       0.04056400      -0.04386000
O       14.38017000      10.88726000       9.11723000       0.02452800       0.09481800      -0.09497500
O        1.50337000       9.06756000      10.92965000       0.07498800       0.06653000      -0.06780100
O        7.90150000       9.11236000      10.88867000      -0.06304100      -0.04466400       0.04413300
O       14.38024000       9.11776000      10.88261000       0.02389400      -0.09451400       0.09453200
O        4.64914000      10.88479000      10.88461000      -0.02339300       0.09416500       0.09502300
O       11.12819000      10.89210000      10.89164000       0.06414300       0.04320300       0.04270300
O       17.52806000      10.93026000      10.93092000      -0.07827700      -0.06369600      -0.06394900
O        4.64990000       9.11951000       9.11505000      -0.02323200      -0.09465200      -0.09339700
O       11.12736000       9.11427000       9.10923000       0.06341700      -0.04318200      -0.04272600
O       17.52440000       9.07012000       9.06684000      -0.07209700       0.06612700       0.06632000
18
Lattice="19.027634 0.0 0.0 0.0 20.0 0.0 0.0 0.0 20.0" Properties=species:S:1:pos:R:3:forces:R:3 energy=-158.30333966 stress="-43.76549 -0.01176 -0.00072 -0.01176 -0.5625 0.00203 -0.00072 0.00203 -0.56055" pbc="T T T"
Zr       3.00567000      10.00064000      10.00040000       3.24174800       0.00320500      -0.00115600
Zr       9.51489000      10.00356000      10.00039000      -0.00059800      -0.00167800      -0.00000200
Zr      16.02396000      10.00197000       9.99955000      -3.24116200       0.00039000      -0.00004200
Zr       0.00102000       9.99863000       9.99839000      -0.00050100       0.00071500       0.00011800
Zr       6.26650000      10.00342000       9.99950000      -0.07996900      -0.00259400       0.00210700
Zr      12.76320000      10.00293000      10.00019000       0.08107000      -0.00122100      -0.00103500
O        1.50353000      10.93151000       9.06921000       0.07186800      -0.06438500       0.06414400
O        7.89524000      10.89615000       9.11004000      -0.05476900      -0.02952000       0.02773300
O       14.38946000      10.89183000       9.11265000      -0.02285000       0.02547400      -0.02521500
O        1.50337000       9.06756000      10.92965000       0.07305500       0.06485400      -0.06583600
O        7.89436000       9.11105000      10.88995000      -0.05425400       0.03008100      -0.03045300
O       14.38951000       9.11321000      10.88715000      -0.02189200      -0.02614800       0.02661100
O        4.63987000      10.88931000      10.88919000       0.02460600       0.02615200       0.02646800
O       11.13541000      10.89332000      10.89283000       0.05203000      -0.02932000      -0.03047200
O       17.52806000      10.93026000      10.93092000      -0.07625500      -0.06170700      -0.06196400
O        4.64063000       9.11496000       9.11060000       0.02256600      -0.02840500      -0.02628100
O       11.13457000       9.11299000       9.10799000       0.05539200       0.02967200       0.03063800
O       17.52440000       9.07012000       9.06684000      -0.07008500       0.06443400       0.06463500
18
Lattice="19.027634 0.0 0.0 0.0 20.0 0.0 0.0 0.0 20.0" Properties=species:S:1:pos:R:3:forces:R:3 energy=-158.30386041 stress="-43.91503 -0.00908 -0.00141 -0.00908 -0.70071 0.00057 -0.00141 0.00057 -0.69963" pbc="T T T"
Zr       3.00567000      10.00064000      10.00040000       3.19469700       0.00280700      -0.00105900
Zr       9.51492000      10.00354000      10.00038000      -0.00176600      -0.00214900       0.00008700
Zr      16.02396000      10.00197000       9.99955000      -3.19377300       0.00002000      -0.00014800
Zr       0.00102000       9.99863000       9.99839000      -0.00025900       0.00032600       0.00006300
Zr       6.26242000      10.00342000       9.99952000      -0.00203300      -0.00313500       0.00242500
Zr      12.76725000      10.00293000      10.00018000       0.00391400      -0.00061200      -0.00074800
O        1.50353000      10.93151000       9.06921000       0.07149600      -0.06427900       0.06357400
O        7.89318000      10.89644000       9.10969000      -0.05155000      -0.04776900       0.04758900
O       14.39208000      10.89312000       9.11135000      -0.03627900       0.00544500      -0.00483300
O        1.50337000       9.06756000      10.92965000       0.07269800       0.06396500      -0.06539900
O        7.89234000       9.11068000      10.89031000      -0.05117500       0.04924600      -0.04989200
O       14.39212000       9.11193000      10.88843000      -0.03544600      -0.00641200       0.00644900
O        4.63725000      10.89059000      10.89048000       0.03602100       0.00660100       0.00712600
O       11.13745000      10.89366000      10.89316000       0.05064100      -0.04823800      -0.05122700
O       17.52806000      10.93026000      10.93092000      -0.07533300      -0.06159800      -0.06151400
O        4.63802000       9.11367000       9.10934000       0.03480300      -0.00801000      -0.00690500
O       11.13660000       9.11264000       9.10764000       0.05250900       0.05026300       0.05033500
O       17.52440000       9.07012000       9.06684000      -0.06916500       0.06353100       0.06407600
18
Lattice="19.027634 0.0 0.0 0.0 20.0 0.0 0.0 0.0 20.0" Properties=species:S:1:pos:R:3:forces:R:3 energy=-158.30479009 stress="-43.77843 -0.00982 0.00031 -0.00982 -0.56601 0.00032 0.00031 0.00032 -0.5655" pbc="T T T"
Zr       3.00567000      10.00064000      10.00040000       3.20956600       0.00292400      -0.00110300
Zr       9.51485000      10.00343000      10.00038000       0.00101500       0.00077100      -0.00106100
Zr      16.02396000      10.00197000       9.99955000      -3.20841900      -0.00012300       0.00023000
Zr       0.00102000       9.99863000       9.99839000      -0.00042300       0.00046000       0.00001300
Zr       6.26078000      10.00326000       9.99965000      -0.00143400      -0.00013700      -0.00046500
Zr      12.76897000      10.00290000      10.00014000      -0.00052900      -0.00015000       0.00076000
O        1.50353000      10.93151000       9.06921000       0.07336100      -0.06540200       0.06477100
O        7.88982000      10.89416000       9.11193000      -0.00579300      -0.00387000       0.00451200
O       14.39126000      10.89388000       9.11063000      -0.00084300      -0.00247900       0.00342400
O        1.50337000       9.06756000      10.92965000       0.07460700       0.06536200      -0.06669300
O        7.88903000       9.11300000      10.88796000      -0.00488900       0.00161800      -0.00137600
O       14.39134000       9.11113000      10.88924000       0.00124900       0.00400300      -0.00404300
O        4.63806000      10.89140000      10.89132000       0.00104700      -0.00397100      -0.00305400
O       11.14075000      10.89138000      10.89073000       0.00476200      -0.00391500      -0.00411900
O       17.52806000      10.93026000      10.93092000      -0.07771700      -0.06269700      -0.06279300
O        4.63877000       9.11279000       9.10852000       0.00078800       0.00200800       0.00381400
O       11.13999000       9.11501000       9.11003000       0.00519100       0.00069500       0.00192600
O       17.52440000       9.07012000       9.06684000      -0.07153700       0.06490100       0.06525800
