18
Lattice="22.527634 0.0 0.0 0.0 20.0 0.0 0.0 0.0 20.0" Properties=species:S:1:pos:R:3:forces:R:3 energy=-155.01549554 stress="-19.3808 -0.00137 -0.00066 -0.00137 -3.57713 0.22542 -0.00066 0.22542 -3.57664" pbc="T T T"
Zr       3.00567000      10.00064000      10.00040000       2.82553700       0.34629800      -0.34966700
Zr      13.32722000       9.69447000      10.30539000       0.90500800       0.42259900      -0.42099800
Zr      19.52396000      10.00197000       9.99955000      -2.68037500      -0.00561500       0.00476700
Zr       0.00102000       9.99863000       9.99839000       0.09110000      -0.06512000       0.06335600
Zr       6.12893000      10.21913000       9.78194000      -1.32907300      -0.42506800       0.42452300
Zr      16.37478000       9.96212000      10.03943000       0.49681200      -0.10523700       0.10817700
O        1.50353000      10.93151000       9.06921000       0.13062900      -0.10154500       0.10100300
O       12.36447000      10.75895000       9.24333000       0.28307400      -0.31427200       0.31203500
O       17.91120000      10.91819000       9.08630000       0.61664100      -0.50500400       0.50340400
O        1.50337000       9.06756000      10.92965000      -0.12891100       0.02258600      -0.02220600
O        7.05541000       9.13908000      10.85954000      -0.21479200       0.28054900      -0.27967300
O       17.93290000       9.05385000      10.94570000       0.50841000       0.48538000      -0.48425800
O        4.59237000      11.04562000      10.81185000      -0.61920600      -0.50521900      -0.45034500
O       14.86174000      10.74577000      11.10981000      -0.02062300      -0.27747000      -0.27574300
O       21.02806000      10.93026000      10.93092000      -0.11202800      -0.04987300      -0.07275200
O        4.59192000       9.19129000       8.95342000      -0.61986700       0.45004600       0.50788200
O       14.86256000       8.89344000       9.25256000      -0.02227300       0.27252500       0.27756100
O       21.02440000       9.07012000       9.06684000      -0.11006400       0.07443700       0.05293500
18
Lattice="22.527634 0.0 0.0 0.0 20.0 0.0 0.0 0.0 20.0" Properties=species:S:1:pos:R:3:forces:R:3 energy=-155.18247852 stress="-9.62235 -0.49773 0.4896 -0.49773 1.35165 -0.02564 0.4896 -0.02564 1.35031" pbc="T T T"
Zr       3.00567000      10.00064000      10.00040000       1.74452200       0.28638300      -0.28830500
Zr      13.37088000       9.71486000      10.28508000       0.00607700      -0.64845600       0.64531700
Zr      19.52396000      10.00197000       9.99955000      -1.88687700      -0.02032000       0.01910000
Zr       0.00102000       9.99863000       9.99839000       0.09456800      -0.06984900       0.06807300
Zr       6.06481000      10.19862000       9.80242000       0.05795000       0.32598200      -0.32493800
Zr      16.39875000       9.95705000      10.04465000       0.04683400      -0.02360400       0.02233800
O        1.50353000      10.93151000       9.06921000       0.07826600      -0.05543200       0.05470100
O       12.37813000      10.74378000       9.25839000      -0.31559700       0.51416600      -0.51270200
O       17.94095000      10.89383000       9.11059000       0.26884500       0.02979100      -0.03249500
O        1.50337000       9.06756000      10.92965000      -0.20282900      -0.02760000       0.02757500
O        7.04505000       9.15262000      10.84605000       0.00888400      -0.20863000       0.20747900
O       17.95743000       9.07727000      10.92234000       0.31263600      -0.12283600       0.12293600
O        4.56250000      11.02124000      10.79013000      -0.82551000       0.16884500       0.41566200
O       14.86074000      10.73239000      11.09651000       0.77315100       0.30024700       0.06641400
O       21.02806000      10.93026000      10.93092000      -0.05481100      -0.00239100      -0.02998900
O        4.56201000       9.21301000       8.97792000      -0.82743500      -0.41501400      -0.16835000
O       14.86148000       8.90658000       9.26595000       0.77434500      -0.06284300      -0.29796300
O       21.02440000       9.07012000       9.06684000      -0.05301800       0.03156000       0.00514500
18
Lattice="22.527634 0.0 0.0 0.0 20.0 0.0 0.0 0.0 20.0" Properties=species:S:1:pos:R:3:forces:R:3 energy=-155.18492417 stress="-10.72548 -0.43933 0.43104 -0.43933 0.81181 -0.02008 0.43104 -0.02008 0.81238" pbc="T T T"
Zr       3.00567000      10.00064000      10.00040000       1.87139400       0.29331800      -0.29527000
Zr      13.36629000       9.71271000      10.28721000       0.11279000      -0.53392500       0.53130900
Zr      19.52396000      10.00197000       9.99955000      -1.97935900      -0.01823200       0.01720400
Zr       0.00102000       9.99863000       9.99839000       0.09456000      -0.06935800       0.06773100
Zr       6.07156000      10.20078000       9.80027000      -0.10679400       0.24823900      -0.24797900
Zr      16.39622000       9.95758000      10.04410000       0.09563900      -0.03263300       0.03196500
O        1.50353000      10.93151000       9.06921000       0.08366000      -0.06043700       0.05987600
O       12.37669000      10.74538000       9.25680000      -0.24744800       0.42561400      -0.42530400
O       17.93782000      10.89639000       9.10803000       0.30894700      -0.02909500       0.02846800
O        1.50337000       9.06756000      10.92965000      -0.19508100      -0.02218700       0.02235600
O        7.04614000       9.15119000      10.84747000      -0.01537500      -0.16001700       0.15936400
O       17.95485000       9.07480000      10.92479000       0.33717400      -0.05257900       0.05291300
O        4.56564000      11.02381000      10.79241000      -0.80150100       0.08962800       0.31680600
O       14.86085000      10.73379000      11.09790000       0.68176700       0.23359900       0.02470700
O       21.02806000      10.93026000      10.93092000      -0.06099900      -0.00752700      -0.03441600
O        4.56516000       9.21072000       8.97534000      -0.80279100      -0.31671300      -0.08814800
O       14.86160000       8.90520000       9.26454000       0.68260600      -0.02384600      -0.23204900
O       21.02440000       9.07012000       9.06684000      -0.05918700       0.03615200       0.01046700
18
Lattice="22.527634 0.0 0.0 0.0 20.0 0.0 0.0 0.0 20.0" Properties=species:S:1:pos:R:3:forces:R:3 energy=-155.24756218 stress="-8.32364 1.29877 -1.30507 1.29877 0.17457 1.39719 -1.30507 1.39719 0.18036" pbc="T T T"
Zr       3.00567000      10.00064000      10.00040000       0.59807200       0.18094100      -0.18016500
Zr      13.39370000       9.69781000      10.30203000      -0.66211500       0.73138300      -0.73006700
Zr      19.52396000      10.00197000       9.99955000      -1.24006700      -0.05962500       0.05851300
Zr       0.00102000       9.99863000       9.99839000       0.12295000      -0.07133500       0.06993800
Zr       6.03408000      10.20213000       9.79892000       0.21660100      -0.25376000       0.25398600
Zr      16.41287000       9.95347000      10.04825000       0.46899000       0.08662600      -0.08746700
O        1.50353000      10.93151000       9.06921000      -0.00203600      -0.00311800       0.00249300
O       12.37191000      10.75781000       9.24433000       0.79680000      -0.73452200       0.73238700
O       17.96746000      10.88269000       9.12166000      -0.14345000       0.31122400      -0.31064800
O        1.50337000       9.06756000      10.92965000      -0.28892000      -0.07496800       0.07490600
O        7.04017000       9.15048000      10.84817000      -0.50638800       0.33578300      -0.33463700
O       17.98318000       9.08416000      10.91547000      -0.02824100      -0.38502500       0.38459800
O        4.51268000      11.01571000      10.79638000      -0.00728100       0.32006000       0.43517500
O       14.89254000      10.73805000      11.09234000       0.34375100       0.12977400       0.11171700
O       21.02806000      10.93026000      10.93092000      -0.00371400       0.04244000       0.00972400
O        4.51212000       9.20675000       8.98357000      -0.00692200      -0.43597400      -0.32199200
O       14.89329000       8.91072000       9.26036000       0.34394700      -0.11190700      -0.12878700
O       21.02440000       9.07012000       9.06684000      -0.00198100      -0.00799700      -0.03967400
18
Lattice="22.527634 0.0 0.0 0.0 20.0 0.0 0.0 0.0 20.0" Properties=species:S:1:pos:R:3:forces:R:3 energy=-155.25509641 stress="-8.9864 0.89386 -0.90073 0.89386 0.28575 1.06281 -0.90073 1.06281 0.28788" pbc="T T T"
Zr       3.00567000      10.00064000      10.00040000       0.93553000       0.21015200      -0.21032500
Zr      13.38694000       9.70149000      10.29838000      -0.49244900       0.44588100      -0.44570800
Zr      19.52396000      10.00197000       9.99955000      -1.43347900      -0.04825200       0.04698900
Zr       0.00102000       9.99863000       9.99839000       0.11648500      -0.07084500       0.06921200
Zr       6.04332000      10.20180000       9.79925000       0.13503100      -0.13344700       0.13415700
Zr      16.40876000       9.95448000      10.04723000       0.37580100       0.05761600      -0.05799300
O        1.50353000      10.93151000       9.06921000       0.01998800      -0.01763400       0.01684800
O       12.37309000      10.75475000       9.24741000       0.56221000      -0.47297000       0.47153400
O       17.96015000      10.88607000       9.11830000      -0.02456300       0.22285200      -0.22284600
O        1.50337000       9.06756000      10.92965000      -0.26489800      -0.06166700       0.06148500
O        7.04164000       9.15066000      10.84800000      -0.38600400       0.21783700      -0.21754300
O       17.97619000       9.08186000      10.91777000       0.06274600      -0.30229100       0.30191100
O        4.52574000      11.01771000      10.79540000      -0.21492700       0.25306200       0.39808400
O       14.88473000      10.73700000      11.09371000       0.42793000       0.15272500       0.08991100
O       21.02806000      10.93026000      10.93092000      -0.01772400       0.02981600      -0.00160200
O        4.52520000       9.20773000       8.98155000      -0.21459700      -0.39726600      -0.25415500
O       14.88548000       8.90936000       9.26139000       0.42889300      -0.08872200      -0.15277600
O       21.02440000       9.07012000       9.06684000      -0.01597100       0.00315300      -0.02718400
18
Lattice="22.527634 0.0 0.0 0.0 20.0 0.0 0.0 0.0 20.0" Properties=species:S:1:pos:R:3:forces:R:3 energy=-155.29946644 stress="-7.38879 -0.17077 0.15861 -0.17077 0.90156 -0.68223 0.15861 -0.68223 0.90011" pbc="T T T"
Zr       3.00567000      10.00064000      10.00040000       0.09646700       0.13847800      -0.13701100
Zr      13.38442000       9.71033000      10.28948000       1.17013400      -0.22757400       0.22761900
Zr      19.52396000      10.00197000       9.99955000      -0.97824100      -0.10410400       0.10264900
Zr       0.00102000       9.99863000       9.99839000       0.15158800      -0.07080700       0.06927000
Zr       6.02417000      10.19709000       9.80399000      -0.65898600       0.11434400      -0.11329600
Zr      16.43555000       9.95418000      10.04754000       0.03411200      -0.00842700       0.00754600
O        1.50353000      10.93151000       9.06921000      -0.05361900       0.02115800      -0.02203300
O       12.39353000      10.74312000       9.25894000      -0.12654500       0.24710200      -0.24709200
O       17.97875000      10.88635000       9.11797000      -0.12919000       0.31619200      -0.31475600
O        1.50337000       9.06756000      10.92965000      -0.32985600      -0.09497000       0.09460200
O        7.02149000       9.15933000      10.83933000      -0.13547200      -0.04469500       0.04594900
O       17.99759000       9.07537000      10.92427000      -0.01072200      -0.29084900       0.29055800
O        4.48164000      11.02297000      10.81474000       0.52636200       0.13365600       0.19570400
O       14.92368000      10.74624000      11.09380000      -0.04790300      -0.04120200      -0.07375700
O       21.02806000      10.93026000      10.93092000       0.00544500       0.05637500       0.02152000
O        4.48107000       9.18842000       8.97633000       0.52774700      -0.19672800      -0.13643200
O       14.92446000       8.90930000       9.25221000      -0.04852300       0.07208300       0.04282600
O       21.02440000       9.07012000       9.06684000       0.00720000      -0.02003000      -0.05386600
18
Lattice="22.527634 0.0 0.0 0.0 20.0 0.0 0.0 0.0 20.0" Properties=species:S:1:pos:R:3:forces:R:3 energy=-155.30450641 stress="-7.81677 0.09673 -0.10812 0.09673 0.71887 -0.26118 -0.10812 -0.26118 0.71914" pbc="T T T"
Zr       3.00567000      10.00064000      10.00040000       0.30566000       0.15593300      -0.15497300
Zr      13.38503000       9.70819000      10.29164000       0.76827300      -0.04909300       0.04980200
Zr      19.52396000      10.00197000       9.99955000      -1.09122000      -0.09016400       0.08867700
Zr       0.00102000       9.99863000       9.99839000       0.14311700      -0.07088000       0.06924100
Zr       6.02882000      10.19823000       9.80284000      -0.47287900       0.05137900      -0.05036600
Zr      16.42906000       9.95426000      10.04746000       0.11757700       0.00766600      -0.00874800
O        1.50353000      10.93151000       9.06921000      -0.03595900       0.01169300      -0.01262400
O       12.38857000      10.74594000       9.25614000       0.05288200       0.05718400      -0.05761700
O       17.97424000      10.88629000       9.11805000      -0.10297400       0.29139700      -0.29137300
O        1.50337000       9.06756000      10.92965000      -0.31440000      -0.08707200       0.08667000
O        7.02637000       9.15723000      10.84143000      -0.19944700       0.02302100      -0.02209300
O       17.99240000       9.07694000      10.92270000       0.00543800      -0.29200200       0.29139800
O        4.49233000      11.02169000      10.81006000       0.34942000       0.15942800       0.23842800
O       14.91423000      10.74400000      11.09378000       0.06104100       0.00114600      -0.03525000
O       21.02806000      10.93026000      10.93092000      -0.00033000       0.04984700       0.01591400
O        4.49177000       9.19310000       8.97759000       0.35039600      -0.24059400      -0.15984300
O       14.91501000       8.90931000       9.25443000       0.06198000       0.03559900       0.00014500
O       21.02440000       9.07012000       9.06684000       0.00142500      -0.01448900      -0.04738700
18
Lattice="22.527634 0.0 0.0 0.0 20.0 0.0 0.0 0.0 20.0" Properties=species:S:1:pos:R:3:forces:R:3 energy=-155.35127968 stress="-6.3704 0.30848 -0.31735 0.30848 -0.16022 -0.16402 -0.31735 -0.16402 -0.16075" pbc="T T T"
Zr       3.00567000      10.00064000      10.00040000       0.14860400       0.12464700      -0.12451200
Zr      13.41450000       9.71050000      10.28933000       0.46644500      -0.02263200       0.02350300
Zr      19.52396000      10.00197000       9.99955000      -1.00449300      -0.09539200       0.09405400
Zr       0.00102000       9.99863000       9.99839000       0.13434300      -0.06961800       0.06816900
Zr       6.00068000      10.19801000       9.80312000      -0.07144500       0.08837900      -0.08809000
Zr      16.44670000       9.95441000      10.04727000       0.13155600      -0.02116000       0.02249600
O        1.50353000      10.93151000       9.06921000      -0.01661000       0.00461100      -0.00532500
O       12.40056000      10.74261000       9.25942000       0.13390900       0.00382200      -0.00399200
O       17.97911000      10.89806000       9.10626000      -0.04750000       0.07030100      -0.07120900
O        1.50337000       9.06756000      10.92965000      -0.28464600      -0.06990200       0.06989900
O        7.00867000       9.16234000      10.83636000      -0.18609900       0.00371700      -0.00343600
O       18.00296000       9.06214000      10.93748000       0.00280800      -0.02714600       0.02709300
O        4.48498000      11.03060000      10.82892000       0.19809000      -0.05281600       0.03028300
O       14.93550000      10.74851000      11.09242000       0.10926500       0.01868400      -0.04286400
O       21.02806000      10.93026000      10.93092000      -0.01225700       0.03902400       0.00525200
O        4.48443000       9.17416000       8.96869000       0.19993000      -0.03144600       0.05254100
O       14.93633000       8.91070000       9.25000000       0.10857600       0.04055100      -0.01759300
O       21.02440000       9.07012000       9.06684000      -0.01047600      -0.00362600      -0.03626800
18
Lattice="22.527634 0.0 0.0 0.0 20.0 0.0 0.0 0.0 20.0" Properties=species:S:1:pos:R:3:forces:R:3 energy=-155.36104916 stress="-5.34558 0.46136 -0.46994 0.46136 -0.77297 -0.08385 -0.46994 -0.08385 -0.77435" pbc="T T T"
Zr       3.00567000      10.00064000      10.00040000       0.02910300       0.10220300      -0.10268500
Zr      13.43514000       9.71213000      10.28771000       0.25175800      -0.00413100       0.00532500
Zr      19.52396000      10.00197000       9.99955000      -0.93915700      -0.09947800       0.09820100
Zr       0.00102000       9.99863000       9.99839000       0.12796300      -0.06854800       0.06719200
Zr       5.98097000      10.19785000       9.80331000       0.22028900       0.11137500      -0.11231400
Zr      16.45906000       9.95453000      10.04713000       0.14041300      -0.04121900       0.04312900
O        1.50353000      10.93151000       9.06921000      -0.00305100      -0.00046300      -0.00013900
O       12.40896000      10.74027000       9.26171000       0.19256800      -0.03830500       0.03761300
O       17.98253000      10.90631000       9.09800000      -0.01465600      -0.07545600       0.07549700
O        1.50337000       9.06756000      10.92965000      -0.26339600      -0.05767300       0.05790900
O        6.99627000       9.16592000      10.83281000      -0.18233500      -0.00657600       0.00645300
O       18.01035000       9.05178000      10.94783000       0.00300500       0.15156400      -0.15061500
O        4.47983000      11.03684000      10.84214000       0.09464500      -0.19146500      -0.11025900
O       14.95039000      10.75166000      11.09146000       0.14364700       0.03118400      -0.04480100
O       21.02806000      10.93026000      10.93092000      -0.02098600       0.03134200      -0.00253200
O        4.47930000       9.16089000       8.96245000       0.09659200       0.10784700       0.19160400
O       14.95126000       8.91167000       9.24689000       0.14278300       0.04353800      -0.03116100
O       21.02440000       9.07012000       9.06684000      -0.01918500       0.00425900      -0.02841800
18
Lattice="22.527634 0.0 0.0 0.0 20.0 0.0 0.0 0.0 20.0" Properties=species:S:1:pos:R:3:forces:R:3 energy=-155.37790533 stress="-4.05865 0.37972 -0.39009 0.37972 -0.39035 -0.13289 -0.39009 -0.13289 -0.38775" pbc="T T T"
Zr       3.00567000      10.00064000      10.00040000       0.07691100       0.07934700      -0.08156500
Zr      13.45573000       9.71265000      10.28724000       0.04813000      -0.02102000       0.02080800
Zr      19.52396000      10.00197000       9.99955000      -0.78279400      -0.06333300       0.06200100
Zr       0.00102000       9.99863000       9.99839000       0.15117800      -0.06768400       0.06626100
Zr       5.98228000      10.20286000       9.79828000       0.13665800       0.15091100      -0.15174800
Zr      16.47092000       9.95270000      10.04903000      -0.01033200       0.02776500      -0.02812600
O        1.50353000      10.93151000       9.06921000      -0.01927800       0.00383700      -0.00450100
O       12.42144000      10.73750000       9.26444000       0.19579100      -0.03537200       0.03545400
O       17.98337000      10.90652000       9.09778000       0.04287100      -0.04682200       0.04646200
O        1.50337000       9.06756000      10.92965000      -0.27598300      -0.05785800       0.05817100
O        6.98248000       9.16720000      10.83153000      -0.07119200      -0.08131500       0.08025700
O       18.01376000       9.05410000      10.94555000       0.08268700       0.04232000      -0.04147600
O        4.48186000      11.03088000      10.84296000       0.06880700      -0.11826000      -0.08934100
O       14.96351000      10.75448000      11.08900000       0.17501600       0.06667200       0.00329900
O       21.02806000      10.93026000      10.93092000      -0.03157300       0.03167300       0.00024500
O        4.48143000       9.15994000       8.96842000       0.06868500       0.09247300       0.11934600
O       14.96436000       8.91409000       9.24410000       0.17418900      -0.00477100      -0.06677600
O       21.02440000       9.07012000       9.06684000      -0.02977000       0.00143800      -0.02876900
18
Lattice="22.527634 0.0 0.0 0.0 20.0 0.0 0.0 0.0 20.0" Properties=species:S:1:pos:R:3:forces:R:3 energy=-155.38820426 stress="-2.10932 0.26032 -0.26769 0.26032 0.19392 -0.20957 -0.26769 -0.20957 0.1956" pbc="T T T"
Zr       3.00567000      10.00064000      10.00040000       0.14854000       0.04585400      -0.05078100
Zr      13.48655000       9.71345000      10.28653000      -0.26423900      -0.04396500       0.04155300
Zr      19.52396000      10.00197000       9.99955000      -0.54201000      -0.00653200       0.00504100
Zr       0.00102000       9.99863000       9.99839000       0.18575600      -0.06596400       0.06437400
Zr       5.98426000      10.21035000       9.79076000       0.01195200       0.20600300      -0.20674500
Zr      16.48867000       9.94996000      10.05188000      -0.25258300       0.13817700      -0.14129700
O        1.50353000      10.93151000       9.06921000      -0.04354900       0.01069500      -0.01151500
O       12.44012000      10.73334000       9.26852000       0.20979100      -0.03494900       0.03613900
O       17.98463000      10.90683000       9.09746000       0.13226000      -0.00166400       0.00060600
O        1.50337000       9.06756000      10.92965000      -0.29488500      -0.05767700       0.05804000
O        6.96184000       9.16912000      10.82962000       0.08179000      -0.19417100       0.19439600
O       18.01885000       9.05757000      10.94213000       0.21375100      -0.13043700       0.13045200
O        4.48491000      11.02196000      10.84419000       0.03005600      -0.00685800      -0.06222300
O       14.98316000      10.75869000      11.08531000       0.22359400       0.12488400       0.08124700
O       21.02806000      10.93026000      10.93092000      -0.04756600       0.03262100       0.00392200
O        4.48461000       9.15851000       8.97735000       0.02812900       0.06609600       0.00892100
O       14.98398000       8.91770000       9.23992000       0.22497300      -0.07974200      -0.12231700
O       21.02440000       9.07012000       9.06684000      -0.04576100      -0.00237000      -0.02981200
18
Lattice="22.527634 0.0 0.0 0.0 20.0 0.0 0.0 0.0 20.0" Properties=species:S:1:pos:R:3:forces:R:3 energy=-155.3973629 stress="-1.95384 0.38162 -0.38588 0.38162 0.06506 -0.05552 -0.38588 -0.05552 0.06429" pbc="T T T"
Zr       3.00567000      10.00064000      10.00040000       0.14601600       0.02610700      -0.03060700
Zr      13.49395000       9.71288000      10.28708000      -0.07700100      -0.10910500       0.10742600
Zr      19.52396000      10.00197000       9.99955000      -0.49024100      -0.01154200       0.01008000
Zr       0.00102000       9.99863000       9.99839000       0.14989400      -0.06660900       0.06501700
Zr       5.98532000      10.21765000       9.78342000       0.11967900      -0.05514000       0.05503800
Zr      16.49089000       9.95164000      10.05018000      -0.03704900       0.10381200      -0.10609400
O        1.50353000      10.93151000       9.06921000      -0.03088700       0.01465900      -0.01553600
O       12.45215000      10.73091000       9.27095000       0.12676100       0.04281300      -0.04302500
O       17.98784000      10.90693000       9.09734000       0.11075600       0.02363300      -0.02352200
O        1.50337000       9.06756000      10.92965000      -0.28171200      -0.05767600       0.05802000
O        6.95495000       9.16596000      10.83279000      -0.06417000       0.01497900      -0.01405000
O       18.02532000       9.05635000      10.94337000       0.13626900      -0.10471500       0.10525700
O        4.48678000      11.01812000      10.84343000       0.04342500       0.05669600      -0.06509300
O       14.99586000      10.76299000      11.08544000       0.07321300       0.08262000       0.06086400
O       21.02806000      10.93026000      10.93092000      -0.02178700       0.03795400       0.00967800
O        4.48651000       9.15927000       8.98124000       0.04219800       0.06776700      -0.05603600
O       14.99670000       8.91757000       9.23570000       0.07462100      -0.05802200      -0.08217800
O       21.02440000       9.07012000       9.06684000      -0.01998500      -0.00823100      -0.03523900
18
Lattice="22.527634 0.0 0.0 0.0 20.0 0.0 0.0 0.0 20.0" Properties=species:S:1:pos:R:3:forces:R:3 energy=-155.39847918 stress="-1.8602 0.44271 -0.44506 0.44271 -0.00205 0.02619 -0.44506 0.02619 -0.00293" pbc="T T T"
Zr       3.00567000      10.00064000      10.00040000       0.14682500       0.01597700      -0.02020000
Zr      13.49791000       9.71257000      10.28738000       0.01957800      -0.14372600       0.14251700
Zr      19.52396000      10.00197000       9.99955000      -0.46660300      -0.01420500       0.01281300
Zr       0.00102000       9.99863000       9.99839000       0.12990600      -0.06685900       0.06531300
Zr       5.98589000      10.22156000       9.77949000       0.17495400      -0.19346100       0.19431300
Zr      16.49207000       9.95255000      10.04927000       0.07273400       0.08573300      -0.08767400
O        1.50353000      10.93151000       9.06921000      -0.02527200       0.01638100      -0.01723700
O       12.45859000      10.72960000       9.27225000       0.08257500       0.08365600      -0.08270400
O       17.98957000      10.90698000       9.09727000       0.10217700       0.03702400      -0.03643500
O        1.50337000       9.06756000      10.92965000      -0.27567400      -0.05825400       0.05864000
O        6.95126000       9.16427000      10.83449000      -0.13808400       0.12713200      -0.12799100
O       18.02879000       9.05570000      10.94404000       0.09570500      -0.09113100       0.09123900
O        4.48779000      11.01606000      10.84303000       0.05036300       0.09106700      -0.06639600
O       15.00267000      10.76529000      11.08551000      -0.00261900       0.06128300       0.05021800
O       21.02806000      10.93026000      10.93092000      -0.00716400       0.04066800       0.01329400
O        4.48752000       9.15967000       8.98332000       0.04865000       0.06901400      -0.09130900
O       15.00351000       8.91751000       9.23343000      -0.00268800      -0.04845100      -0.06045200
O       21.02440000       9.07012000       9.06684000      -0.00536200      -0.01185000      -0.03794900
18
Lattice="22.527634 0.0 0.0 0.0 20.0 0.0 0.0 0.0 20.0" Properties=species:S:1:pos:R:3:forces:R:3 energy=-155.40297648 stress="-1.94964 0.3605 -0.36426 0.3605 -0.04323 -0.10769 -0.36426 -0.10769 -0.0451" pbc="T T T"
Zr       3.00567000      10.00064000      10.00040000       0.21621600       0.02508400      -0.02818400
Zr      13.50278000       9.70899000      10.29092000       0.08082600      -0.03350100       0.03446300
Zr      19.52396000      10.00197000       9.99955000      -0.38210400      -0.03498600       0.03383100
Zr       0.00102000       9.99863000       9.99839000       0.11857700      -0.06745500       0.06606100
Zr       5.99047000      10.22156000       9.77949000      -0.03412700      -0.02688900       0.02849800
Zr      16.49504000       9.95548000      10.04628000       0.16099100       0.02052100      -0.02028900
O        1.50353000      10.93151000       9.06921000      -0.02204800       0.01727500      -0.01802800
O       12.46764000      10.73003000       9.27184000       0.13888000       0.00437900      -0.00468400
O       17.99380000      10.90787000       9.09638000       0.05522000       0.05076600      -0.05077600
O        1.50337000       9.06756000      10.92965000      -0.27282800      -0.05999700       0.06043800
O        6.94402000       9.16525000      10.83350000       0.03018800      -0.04497300       0.04579800
O       18.03482000       9.05291000      10.94684000      -0.00728200      -0.01976500       0.02028500
O        4.49004000      11.01582000      10.84108000       0.03651200       0.10234200      -0.05516100
O       15.01021000      10.76924000      11.08672000      -0.08039600      -0.01646000      -0.00077900
O       21.02806000      10.93026000      10.93092000       0.00291700       0.04409200       0.01658300
O        4.48975000       9.16168000       8.98358000       0.03461900       0.05588200      -0.10313300
O       15.01106000       8.91634000       9.22954000      -0.08088400      -0.00125100       0.01637900
O       21.02440000       9.07012000       9.06684000       0.00472300      -0.01506600      -0.04130200
18
Lattice="22.527634 0.0 0.0 0.0 20.0 0.0 0.0 0.0 20.0" Properties=species:S:1:pos:R:3:forces:R:3 energy=-155.40312422 stress="-1.96604 0.34268 -0.34521 0.34268 -0.04935 -0.13385 -0.34521 -0.13385 -0.0518" pbc="T T T"
Zr       3.00567000      10.00064000      10.00040000       0.23130400       0.02713900      -0.03001100
Zr      13.50376000       9.70827000      10.29164000       0.09236900      -0.01150500       0.01247400