60
Lattice="5.146 0.0 0.0 0.0 5.205 0.0 0.0 0.0 45.561243" Properties=species:S:1:pos:R:3:forces:R:3 energy=-566.21666476 stress="60.75654 -17.15297 -5.34526 -17.15297 33.42251 -0.02785 -5.34526 -0.02785 19.7093" pbc="T T T"
O        2.56536000       3.45483000      23.72513000      -0.41497300      -0.10817700      -0.70308400
O        2.98548000       4.35275000      21.10209000      -0.41666800       0.10802300      -0.69913100
O        3.10505000       0.85225000      24.45915000       0.41666800      -0.10802300       0.69913100
O        0.34454000       3.93281000      22.54468000      -1.29564900       0.69678700       0.87322100
O        0.60000000       1.27219000      23.01657000       1.29564900      -0.69678700      -0.87322100
O        1.02008000       1.33031000      20.39340000       1.29789200       0.69648700      -0.87268900
O        5.07046000       3.87469000      25.16785000      -1.29789200      -0.69648700       0.87268900
O        2.68476000       1.75022000      27.08235000       0.41805700       0.10722100       0.69216100
O        1.72511000       3.45483000      28.97084000      -0.42218600      -0.09938100      -0.68900400
O        2.14523000       4.35262000      26.34800000      -0.41694100       0.10587500      -0.69980700
O        4.48561000       1.32968000      30.88876000       1.28349400       0.72342200      -0.72094400
O        2.26480000       0.85219000      29.70491000       0.39950400      -0.14239000       0.64792900
O        4.90542000       1.27237000      28.26290000       1.30017800      -0.71078600      -0.86545800
O        0.17960000       1.33031000      25.63977000       1.29746700       0.70106000      -0.87722500
O        4.23036000       3.87427000      30.41356000      -1.26884600      -0.71898600       0.85032100
O        1.84776000       1.74811000      32.32092000       0.24936800       0.41865600       0.42801100
O        0.85314000       3.49354000      34.23761000      -0.26237700      -0.24674300      -0.98701600
O        1.30434000       4.35171000      31.59341000      -0.48257200      -0.00295200      -0.61601000
O        1.43578000       0.90697000      34.96859000      -0.17684300       0.16338300       0.91529700
O        3.81989000       3.94289000      33.03024000      -1.15286100       0.75423500       0.54706200
O        4.07731000       1.25561000      33.56181000       0.81116000      -0.33162500       0.08493600
O        4.65045000       3.93280000      27.79106000      -1.29612800       0.69966100       0.87013800
O        3.52517000       1.75017000      21.83612000       0.41497300       0.10817700       0.70308400
O        3.44531000       3.75156000      35.62402000       0.57910200      -0.10644200       0.45193600
O        0.09139000       1.71146000      11.32364000       0.26237700       0.24674300       0.98701600
O        2.27064000       1.26211000      12.53101000       1.15286100      -0.75423500      -0.54706200
O        2.64522000       1.45344000       9.93723000      -0.57910200       0.10644200      -0.45193600
O        1.60493000       3.87532000      14.67248000      -1.28349400      -0.72342200       0.72094400
O        0.76494000       3.87469000      19.92147000      -1.29746700      -0.70106000       0.87722500
O        4.65475000       4.29803000      10.59265000       0.17684300      -0.16338300      -0.91529700
O        4.24278000       3.45689000      13.24032000      -0.24936800      -0.41865600      -0.42801100
O        2.01322000       3.94939000      11.99943000      -0.81116000       0.33162500      -0.08493600
O        4.36542000       1.75017000      16.59040000       0.42218600       0.09938100       0.68900400
O        4.78619000       0.85329000      13.96783000       0.48257200       0.00295200       0.61601000
O        3.82573000       4.35281000      15.85634000      -0.39950400       0.14239000      -0.64792900
O        3.94530000       0.85238000      19.21324000       0.41694100      -0.10587500       0.69980700
O        1.18511000       3.93263000      17.29834000      -1.30017800       0.71078600       0.86545800
O        1.44008000       1.27220000      17.77018000       1.29612800      -0.69966100      -0.87013800
O        1.86017000       1.33073000      15.14769000       1.26884600       0.71898600      -0.85032100
O        3.40577000       3.45478000      18.47890000      -0.41805700      -0.10722100      -0.69216100
Zr       2.55481000       2.49113000      34.30299000       0.38890000      -1.10394200       1.43529900
Zr       0.13532000       2.79712000      32.25720000      -0.41890700      -0.74210300      -1.60925800
Zr       4.87353000       4.93902000      34.84300000      -0.46725400       0.95384000      -1.18581200
Zr       3.00884000       0.18882000      31.66547000       0.31842400       0.20532000       1.60454500
Zr       0.80921000       2.40788000      13.30404000       0.41890700       0.74210300       1.60925800
Zr       3.53572000       2.71386000      11.25826000      -0.38890000       1.10394200      -1.43529900
Zr       3.08170000       5.01618000      13.89578000      -0.31842400      -0.20532000      -1.60454500
Zr       4.69949000       0.19130000      21.17483000       0.15123800      -0.14706500       1.37809300
Zr       2.23136000       5.01377000      19.14028000      -0.15056600       0.14783600      -1.38254900
Zr       2.65214000       2.79351000      16.51740000      -0.17332500      -0.13536900      -1.41357400
Zr       3.43839000       2.41149000      29.04384000       0.17332500       0.13536900       1.41357400
Zr       0.97092000       2.79379000      27.00951000      -0.15825400      -0.14755100      -1.38153200
Zr       0.55117000       5.01329000      29.63279000      -0.22929200       0.18480500      -1.42401800
Zr       3.85917000       0.19123000      26.42096000       0.15056600      -0.14783600       1.38254900
Zr       5.11962000       2.41121000      18.55174000       0.15825400       0.14755100       1.38153200
Zr       4.27938000       2.41123000      23.79789000       0.14952100       0.14674000       1.37953200
Zr       1.81115000       2.79377000      21.76335000      -0.14952100      -0.14674000      -1.37953200
Zr       1.39104000       5.01370000      24.38641000      -0.15123800       0.14706500      -1.37809300
Zr       0.39336000       0.19171000      15.92845000       0.22929200      -0.18480500       1.42401800
Zr       1.21700000       0.26598000      10.71824000       0.46725400      -0.95384000       1.18581200
