60
Lattice="5.146 0.0 0.0 0.0 5.205 0.0 0.0 0.0 45.561243" Properties=species:S:1:pos:R:3:forces:R:3 energy=-566.35616402 stress="55.20837 -16.50919 -3.67965 -16.50919 34.17048 -0.36042 -3.67965 -0.36042 20.28648" pbc="T T T"
O        2.55591000       3.46859000      23.73441000      -0.19052700      -0.35474000      -0.81013400
O        2.97603000       4.33898000      21.11137000      -0.19154400       0.35299800      -0.81020600
O        3.11450000       0.86602000      24.44987000       0.19154400      -0.35299800       0.81020600
O        0.34284000       3.95237000      22.53330000      -1.14145900       0.29463400       0.90613700
O        0.60169000       1.25263000      23.02794000       1.14145900      -0.29463400      -0.90613700
O        1.02178000       1.34986000      20.40478000       1.14367200       0.29394000      -0.90373400
O        5.06875000       3.85514000      25.15646000      -1.14367200      -0.29394000       0.90373400
O        2.69423000       1.73646000      27.07305000       0.19171100       0.35473000       0.80276300
O        1.71565000       3.46859000      28.98017000      -0.19846900      -0.34654300      -0.79736000
O        2.13578000       4.33887000      26.35731000      -0.19239500       0.35378000      -0.80787900
O        4.48730000       1.34930000      30.89979000       1.13570300       0.32099500      -0.76319000
O        2.27425000       0.86597000      29.69567000       0.17898500      -0.38587600       0.76129200
O        4.90715000       1.25280000      28.27425000       1.14633900      -0.30166500      -0.90115800
O        0.18132000       1.34987000      25.65113000       1.14337700       0.29383200      -0.91267800
O        4.22863000       3.85476000      30.40222000      -1.11691600      -0.31351600       0.88621900
O        1.85684000       1.73459000      32.31250000       0.05710500       0.60742500       0.53391300
O        0.84733000       3.50284000      34.24456000      -0.05193100      -0.45036100      -1.03333900
O        1.29496000       4.33807000      31.60280000      -0.24160600       0.26128100      -0.73639000
O        1.44393000       0.91443000      34.95733000      -0.25778400       0.06965200       1.01038700
O        3.81705000       3.96129000      33.01963000      -0.98114300       0.35652600       0.61206700
O        4.07764000       1.23796000      33.56708000       0.75487600      -0.01955800       0.04747400
O        4.64873000       3.95236000      27.77966000      -1.14064300       0.29628700       0.90290400
O        3.53462000       1.73641000      21.82684000       0.19052700       0.35474000       0.81013400
O        3.43722000       3.74619000      35.61679000       0.68492700      -0.00467800       0.48822200
O        0.09720000       1.70216000      11.31668000       0.05193100       0.45036100       1.03333900
O        2.27348000       1.24371000      12.54161000       0.98114300      -0.35652600      -0.61206700
O        2.65331000       1.45881000       9.94446000      -0.68492700       0.00467800      -0.48822200
O        1.60324000       3.85570000      14.66145000      -1.13570300      -0.32099500       0.76319000
O        0.76321000       3.85513000      19.91011000      -1.14337700      -0.29383200       0.91267800
O        4.64661000       4.29057000      10.60391000       0.25778400      -0.06965200      -1.01038700
O        4.23369000       3.47041000      13.24874000      -0.05710500      -0.60742500      -0.53391300
O        2.01289000       3.96704000      11.99416000      -0.75487600       0.01955800      -0.04747400
O        4.37488000       1.73641000      16.58107000       0.19846900       0.34654300       0.79736000
O        4.79557000       0.86693000      13.95845000       0.24160600      -0.26128100       0.73639000
O        3.81628000       4.33903000      15.86557000      -0.17898500       0.38587600      -0.76129200
O        3.95475000       0.86613000      19.20394000       0.19239500      -0.35378000       0.80787900
O        1.18338000       3.95220000      17.28699000      -1.14633900       0.30166500       0.90115800
O        1.44180000       1.25264000      17.78158000       1.14064300      -0.29628700      -0.90290400
O        1.86190000       1.35024000      15.15902000       1.11691600       0.31351600      -0.88621900
O        3.39630000       3.46854000      18.48819000      -0.19171100      -0.35473000      -0.80276300
Zr       2.55922000       2.48376000      34.31051000       0.13777300      -0.84267500       1.16367800
Zr       0.13543000       2.79491000      32.24802000      -0.36653900      -0.62607700      -1.34903000
Zr       4.87222000       4.94945000      34.83811000      -0.45765000       0.69074000      -1.06082700
Zr       3.00934000       0.18727000      31.67465000       0.24795500       0.20016500       1.33947700
Zr       0.80910000       2.41009000      13.31322000       0.36653900       0.62607700       1.34903000
Zr       3.53131000       2.72124000      11.25074000      -0.13777300       0.84267500      -1.16367800
Zr       3.08119000       5.01773000      13.88659000      -0.24795500      -0.20016500      -1.33947700
Zr       4.69883000       0.18947000      21.18383000       0.13720800      -0.10687100       1.14464000
Zr       2.23201000       5.01559000      19.13128000      -0.13721300       0.10786600      -1.15064000
Zr       2.65272000       2.79172000      16.50838000      -0.15343800      -0.09719100      -1.17724500
Zr       3.43781000       2.41328000      29.05286000       0.15343800       0.09719100       1.17724500
Zr       0.97157000       2.79196000      27.00050000      -0.14231100      -0.10915300      -1.14709700
Zr       0.55178000       5.01517000      29.62377000      -0.20330800       0.14231800      -1.18402900
Zr       3.85852000       0.18941000      26.42996000       0.13721300      -0.10786600       1.15064000
Zr       5.11896000       2.41304000      18.56074000       0.14231100       0.10915300       1.14709700
Zr       4.27872000       2.41306000      23.80689000       0.13569200       0.10713600       1.14650400
Zr       1.81181000       2.79194000      21.75435000      -0.13569200      -0.10713600      -1.14650400
Zr       1.39170000       5.01553000      24.37742000      -0.13720800       0.10687100      -1.14464000
Zr       0.39275000       0.18983000      15.93748000       0.20330800      -0.14231800       1.18402900
Zr       1.21831000       0.25555000      10.72313000       0.45765000      -0.69074000       1.06082700
