60
Lattice="5.146 0.0 0.0 0.0 5.205 0.0 0.0 0.0 45.561243" Properties=species:S:1:pos:R:3:forces:R:3 energy=-570.83714849 stress="8.24163 -16.12227 1.82502 -16.12227 18.22092 -0.28904 1.82502 -0.28904 16.03643" pbc="T T T"
O        2.52382000       3.42906000      23.62956000       0.12774300      -0.04743500       0.01689500
O        2.94392000       4.37837000      21.00624000       0.13163800       0.05128400       0.01531600
O        3.14661000       0.82663000      24.55500000      -0.13163800      -0.05128400      -0.01531600
O        0.21969000       3.94481000      22.67510000      -0.02959700       0.01655200      -0.02759200
O        0.72484000       1.26019000      22.88615000       0.02959700      -0.01655200       0.02759200
O        1.14524000       1.34234000      20.26362000       0.02854000       0.01234100       0.02654000
O        4.94529000       3.86266000      25.29762000      -0.02854000      -0.01234100      -0.02654000
O        2.72637000       1.77708000      27.17661000      -0.12005600       0.04519700       0.00481400
O        1.68298000       3.42828000      28.87317000       0.11628200      -0.03038500       0.04902900
O        2.10353000       4.37833000      26.25284000       0.11992600       0.04186700       0.01766400
O        4.60017000       1.32918000      30.79016000      -0.01382700      -0.01788300       0.16787200
O        2.30551000       0.82050000      29.79590000      -0.11077800      -0.03893200       0.10243700
O        5.02890000       1.26134000      28.14038000       0.01264900      -0.00403800       0.09273600
O        0.30461000       1.34216000      25.50996000       0.02283200       0.01061200       0.04508800
O        4.10953000       3.85649000      30.52429000      -0.04656700      -0.02756100       0.01978500
O        1.88701000       1.80451000      32.41774000      -0.17105400      -0.04021600       0.15276100
O        0.87189000       3.48341000      34.07767000       0.10683100       0.32417400       0.05296400
O        1.25548000       4.37203000      31.49254000       0.13203100       0.05756100       0.02919800
O        1.40540000       0.90948000      35.16667000      -0.09172100       0.01895600       0.28267600
O        3.70814000       3.96503000      33.09987000       0.03836300       0.05798000       0.04929900
O        4.13787000       1.28497000      33.53734000      -0.00613400       0.00194000       0.17387300
O        4.52564000       3.94463000      27.91735000      -0.02734700       0.00880900      -0.01773400
O        3.56672000       1.77594000      21.93168000      -0.12774300       0.04743500      -0.01689500
O        3.56197000       3.72488000      35.69840000       0.21950200      -0.13170500      -0.02794200
O        0.07264000       1.72159000      11.48357000      -0.10683100      -0.32417400      -0.05296400
O        2.38239000       1.23997000      12.46137000      -0.03836300      -0.05798000      -0.04929900
O        2.52856000       1.48012000       9.86284000      -0.21950200       0.13170500       0.02794200
O        1.49036000       3.87582000      14.77108000       0.01382700       0.01788300      -0.16787200
O        0.63992000       3.86284000      20.05128000      -0.02283200      -0.01061200      -0.04508800
O        4.68513000       4.29552000      10.39458000       0.09172100      -0.01895600      -0.28267600
O        4.20352000       3.40049000      13.14351000       0.17105400       0.04021600      -0.15276100
O        1.95266000       3.92003000      12.02390000       0.00613400      -0.00194000      -0.17387300
O        4.40755000       1.77672000      16.68807000      -0.11628200       0.03038500      -0.04902900
O        4.83505000       0.83297000      14.06870000      -0.13203100      -0.05756100      -0.02919800
O        3.78503000       4.38450000      15.76535000       0.11077800       0.03893200      -0.10243700
O        3.98701000       0.82667000      19.30840000      -0.11992600      -0.04186700      -0.01766400
O        1.06163000       3.94366000      17.42086000      -0.01264900       0.00403800      -0.09273600
O        1.56489000       1.26037000      17.64389000       0.02734700      -0.00880900       0.01773400
O        1.98100000       1.34851000      15.03695000       0.04656700       0.02756100      -0.01978500
O        3.36416000       3.42792000      18.38464000       0.12005600      -0.04519700      -0.00481400
Zr       2.53507000       2.42210000      34.47265000      -0.13060600       0.01463900       0.01716300
Zr       0.09592000       2.81745000      32.15261000       0.04905900       0.09096400      -0.02142800
Zr       4.85528000       4.92944000      34.74186000       0.15502800      -0.21593500       0.10922500
Zr       3.00143000       0.23520000      31.78060000      -0.14715400      -0.09520800      -0.19773100
Zr       0.84861000       2.38754000      13.40863000      -0.04905900      -0.09096400       0.02142800
Zr       3.55546000       2.78290000      11.08860000       0.13060600      -0.01463900      -0.01716300
Zr       3.08910000       4.96980000      13.78065000       0.14715400       0.09520800       0.19773100
Zr       4.71382000       0.21926000      21.26392000      -0.03879100      -0.05931400      -0.07949600
Zr       2.21751000       4.98720000      19.04918000       0.06417800       0.00874100       0.10592700
Zr       2.64168000       2.82251000      16.42193000       0.09774900      -0.05337600       0.22981300
Zr       3.44885000       2.38249000      29.13931000      -0.09774900       0.05337600      -0.22981300
Zr       0.95439000       2.82204000      26.91936000       0.06487200      -0.05715700       0.06753300
Zr       0.53283000       4.98221000      29.54463000       0.03152100      -0.03618700      -0.06917500
Zr       3.87302000       0.21780000      26.51207000      -0.06417800      -0.00874100      -0.10592700
Zr       5.13614000       2.38296000      18.64188000      -0.06487200       0.05715700      -0.06753300
Zr       4.29336000       2.38405000      23.88699000      -0.03526800       0.02734900      -0.07725500
Zr       1.79718000       2.82095000      21.67425000       0.03526800      -0.02734900       0.07725500
Zr       1.37671000       4.98574000      24.29732000       0.03879100       0.05931400       0.07949600
Zr       0.41170000       0.22279000      16.01661000      -0.03152100       0.03618700       0.06917500
Zr       1.23525000       0.27556000      10.81939000      -0.15502800       0.21593500      -0.10922500
