60
Lattice="5.146 0.0 0.0 0.0 5.205 0.0 0.0 0.0 45.561243" Properties=species:S:1:pos:R:3:forces:R:3 energy=-571.01450329 stress="8.32525 -15.80862 -0.38791 -15.80862 16.46825 0.56813 -0.38791 0.56813 14.28667" pbc="T T T"
O        2.53754000       3.43253000      23.63390000      -0.05673900       0.01839200      -0.02272300
O        2.95880000       4.37544000      21.01055000      -0.06846400      -0.02838500      -0.03293800
O        3.13173000       0.82956000      24.55069000       0.06846400       0.02838500       0.03293800
O        0.21170000       3.94831000      22.67869000       0.07632400      -0.01707400      -0.01933600
O        0.73283000       1.25669000      22.88255000      -0.07632400       0.01707400       0.01933600
O        1.15316000       1.34612000      20.26160000      -0.07074500      -0.00507400       0.00255100
O        4.93737000       3.85888000      25.29964000       0.07074500       0.00507400      -0.00255100
O        2.70994000       1.77301000      27.16982000       0.08893000      -0.03473500       0.12282300
O        1.69214000       3.43133000      28.87193000      -0.03575000       0.06885500       0.06274000
O        2.11584000       4.37472000      26.25639000      -0.05288200      -0.02521400      -0.00377000
O        4.59650000       1.32264000      30.81593000      -0.10958900       0.00095900       0.05022000
O        2.28503000       0.82944000      29.80473000       0.00943600       0.03234700       0.12529800
O        5.03275000       1.26235000      28.14326000      -0.10617500      -0.00337200       0.11320500
O        0.31112000       1.34402000      25.50927000      -0.08246900      -0.01711300       0.02034100
O        4.09768000       3.84462000      30.51633000       0.01431900       0.04089500       0.09433500
O        1.84360000       1.78083000      32.47443000       0.03259000      -0.23744200       0.07431600
O        0.93849000       3.56664000      34.05551000       0.00293100       0.11592000       0.06165500
O        1.26080000       4.36623000      31.47750000       0.03111200      -0.11105200       0.01557300
O        1.38492000       0.93542000      35.28442000      -0.10754800       0.01677700       0.09466700
O        3.71679000       3.98148000      33.10294000       0.09668400       0.04977500       0.02435800
O        4.12902000       1.29230000      33.58924000      -0.01324300       0.01016700       0.05796600
O        4.51761000       3.94820000      27.91068000       0.04250500      -0.00706400       0.11162700
O        3.55299000       1.77247000      21.92734000       0.05673900      -0.01839200       0.02272300
O        3.63249000       3.65446000      35.70729000       0.04832100      -0.02758200      -0.01495000
O        0.00604000       1.63836000      11.50573000      -0.00293100      -0.11592000      -0.06165500
O        2.37374000       1.22352000      12.45830000      -0.09668400      -0.04977500      -0.02435800
O        2.45804000       1.55054000       9.85395000      -0.04832100       0.02758200       0.01495000
O        1.49403000       3.88236000      14.74531000       0.10958900      -0.00095900      -0.05022000
O        0.63341000       3.86098000      20.05197000       0.08246900       0.01711300      -0.02034100
O        4.70562000       4.26958000      10.27682000       0.10754800      -0.01677700      -0.09466700
O        4.24694000       3.42417000      13.08681000      -0.03259000       0.23744200      -0.07431600
O        1.96151000       3.91270000      11.97201000       0.01324300      -0.01016700      -0.05796600
O        4.39840000       1.77367000      16.68932000       0.03575000      -0.06885500      -0.06274000
O        4.82974000       0.83877000      14.08374000      -0.03111200       0.11105200      -0.01557300
O        3.80550000       4.37556000      15.75652000      -0.00943600      -0.03234700      -0.12529800
O        3.97469000       0.83028000      19.30485000       0.05288200       0.02521400       0.00377000
O        1.05778000       3.94265000      17.41799000       0.10617500       0.00337200      -0.11320500
O        1.57292000       1.25680000      17.65057000      -0.04250500       0.00706400      -0.11162700
O        1.99285000       1.36038000      15.04492000      -0.01431900      -0.04089500      -0.09433500
O        3.38060000       3.43199000      18.39142000      -0.08893000       0.03473500      -0.12282300
Zr       2.51469000       2.39160000      34.50810000       0.15714400       0.16043500       0.08211600
Zr       0.08492000       2.83632000      32.16867000      -0.06244500       0.02908500       0.04293300
Zr       4.87468000       4.92404000      34.77974000      -0.08548600      -0.03840000       0.03749000
Zr       2.98346000       0.24205000      31.77786000       0.03793200      -0.11885600       0.19122500
Zr       0.85962000       2.36868000      13.39258000       0.06244500      -0.02908500      -0.04293300
Zr       3.57584000       2.81340000      11.05315000      -0.15714400      -0.16043500      -0.08211600
Zr       3.10708000       4.96295000      13.78338000      -0.03793200       0.11885600      -0.19122500
Zr       4.71458000       0.22041000      21.24765000       0.07245300       0.00072800       0.13126000
Zr       2.21989000       4.98238000      19.06469000      -0.05300000       0.11770500      -0.01198700
Zr       2.64970000       2.83278000      16.43403000      -0.04785700      -0.17326900       0.08693000
Zr       3.44083000       2.37222000      29.12721000       0.04785700       0.17326900      -0.08693000
Zr       0.95467000       2.82095000      26.93609000      -0.10047800       0.07871100      -0.24011900
Zr       0.52327000       4.97715000      29.55646000      -0.07589700      -0.09166000      -0.27446800
Zr       3.87064000       0.22262000      26.49655000       0.05300000      -0.11770500       0.01198700
Zr       5.13586000       2.38405000      18.62515000       0.10047800      -0.07871100       0.24011900
Zr       4.29317000       2.38152000      23.87155000       0.06119700       0.04536300       0.09750300
Zr       1.79736000       2.82348000      21.68969000      -0.06119700      -0.04536300      -0.09750300
Zr       1.37595000       4.98459000      24.31359000      -0.07245300      -0.00072800      -0.13126000
Zr       0.42126000       0.22785000      16.00478000       0.07589700       0.09166000       0.27446800
Zr       1.21585000       0.28096000      10.78151000       0.08548600       0.03840000      -0.03749000
