60
Lattice="5.146 0.0 0.0 0.0 5.205 0.0 0.0 0.0 45.561243" Properties=species:S:1:pos:R:3:forces:R:3 energy=-571.08187768 stress="7.88302 -15.98752 -0.39321 -15.98752 15.2211 0.96289 -0.39321 0.96289 12.61028" pbc="T T T"
O        2.53875000       3.43497000      23.63401000      -0.04408600      -0.00026200      -0.04172600
O        2.96034000       4.37259000      21.01120000      -0.03605800      -0.00006800      -0.03406500
O        3.13020000       0.83241000      24.55005000       0.03605800       0.00006800       0.03406500
O        0.21836000       3.94247000      22.67893000       0.02312600       0.06292100      -0.03905900
O        0.72617000       1.26253000      22.88231000      -0.02312600      -0.06292100       0.03905900
O        1.14677000       1.34158000      20.26245000      -0.01256300       0.05890400       0.03182200
O        4.94376000       3.86342000      25.29879000       0.01256300      -0.05890400      -0.03182200
O        2.70764000       1.76863000      27.17221000       0.02241500      -0.02130800       0.06219500
O        1.69101000       3.43706000      28.87089000      -0.02489300       0.03593100      -0.08403900
O        2.11638000       4.37222000      26.25581000      -0.05173000      -0.01176400      -0.06529300
O        4.58257000       1.31591000      30.82882000      -0.06424900       0.09886500       0.06355800
O        2.27416000       0.83877000      29.81693000      -0.00057400       0.04881200       0.06890800
O        5.02224000       1.26936000      28.14713000      -0.03355700      -0.07416300       0.03899700
O        0.30339000       1.33725000      25.50878000      -0.02132200       0.06172100       0.02204900
O        4.09684000       3.84778000      30.52139000      -0.00527100      -0.01452000       0.01105900
O        1.81859000       1.74842000      32.50752000       0.05815100      -0.13908400       0.13535200
O        0.97134000       3.61300000      34.05720000       0.03419300      -0.02667100      -0.00458600
O        1.26482000       4.35138000      31.47054000       0.02679300      -0.16474000      -0.03684000
O        1.36444000       0.95445000      35.34042000      -0.01907900       0.05751300       0.02418700
O        3.73515000       3.98875000      33.11042000       0.00124100       0.00888300       0.08441900
O        4.12632000       1.30167000      33.62261000      -0.03831900      -0.04340400      -0.01261700
O        4.52167000       3.94382000      27.91135000      -0.01040600       0.05432500       0.00717600
O        3.55178000       1.77003000      21.92723000       0.04408600       0.00026200       0.04172600
O        3.66702000       3.61634000      35.70904000      -0.03187000       0.08127800       0.09402800
O       -0.02680000       1.59200000      11.50404000      -0.03419300       0.02667100       0.00458600
O        2.35538000       1.21625000      12.45082000      -0.00124100      -0.00888300      -0.08441900
O        2.42351000       1.58866000       9.85220000       0.03187000      -0.08127800      -0.09402800
O        1.50796000       3.88909000      14.73242000       0.06424900      -0.09886500      -0.06355800
O        0.64114000       3.86775000      20.05246000       0.02132200      -0.06172100      -0.02204900
O        4.72610000       4.25055000      10.22083000       0.01907900      -0.05751300      -0.02418700
O        4.27194000       3.45658000      13.05372000      -0.05815100       0.13908400      -0.13535200
O        1.96421000       3.90333000      11.93864000       0.03831900       0.04340400       0.01261700
O        4.39952000       1.76794000      16.69036000       0.02489300      -0.03593100       0.08403900
O        4.82572000       0.85362000      14.09070000      -0.02679300       0.16474000       0.03684000
O        3.81637000       4.36623000      15.74431000       0.00057400      -0.04881200      -0.06890800
O        3.97415000       0.83278000      19.30543000       0.05173000       0.01176400       0.06529300
O        1.06829000       3.93564000      17.41411000       0.03355700       0.07416300      -0.03899700
O        1.56886000       1.26118000      17.64990000       0.01040600      -0.05432500      -0.00717600
O        1.99369000       1.35722000      15.03985000       0.00527100       0.01452000      -0.01105900
O        3.38289000       3.43637000      18.38903000      -0.02241500       0.02130800      -0.06219500
Zr       2.51130000       2.38780000      34.53072000       0.02793100       0.07820100       0.06967400
Zr       0.07809000       2.84095000      32.17807000       0.11767000      -0.06366800       0.04254800
Zr       4.88244000       4.92855000      34.80441000      -0.01734400       0.03493300      -0.00772200
Zr       2.97863000       0.23235000      31.79697000      -0.03876900       0.03700300       0.02686900
Zr       0.86644000       2.36405000      13.38317000      -0.11767000       0.06366800      -0.04254800
Zr       3.57923000       2.81720000      11.03052000      -0.02793100      -0.07820100      -0.06967400
Zr       3.11190000       4.97265000      13.76427000       0.03876900      -0.03700300      -0.02686900
Zr       4.71594000       0.21864000      21.25542000      -0.03238700      -0.02467800       0.04613500
Zr       2.22060000       4.98904000      19.06021000       0.02910100      -0.03352300      -0.04602000
Zr       2.65432000       2.82761000      16.42917000       0.03110300      -0.01363300      -0.07759300
Zr       3.43621000       2.37739000      29.13207000      -0.03110300       0.01363300       0.07759300
Zr       0.95198000       2.82097000      26.92443000       0.01244600      -0.01191300       0.02743300
Zr       0.51854000       4.97613000      29.54525000       0.01569100      -0.00679300       0.10276500
Zr       3.86993000       0.21596000      26.50104000      -0.02910100       0.03352300       0.04602000
Zr       5.13855000       2.38403000      18.63681000      -0.01244600       0.01191300      -0.02743300
Zr       4.29304000       2.38568000      23.87901000      -0.02198600      -0.02520600       0.00100600
Zr       1.79749000       2.81932000      21.68224000       0.02198600       0.02520600      -0.00100600
Zr       1.37459000       4.98636000      24.30582000       0.03238700       0.02467800      -0.04613500
Zr       0.42600000       0.22887000      16.01599000      -0.01569100       0.00679300      -0.10276500
Zr       1.20809000       0.27645000      10.75683000       0.01734400      -0.03493300       0.00772200
