60
Lattice="5.146 0.0 0.0 0.0 5.205 0.0 0.0 0.0 45.561243" Properties=species:S:1:pos:R:3:forces:R:3 energy=-571.11187442 stress="7.90211 -16.08313 0.32362 -16.08313 14.72482 1.1457 0.32362 1.1457 12.36047" pbc="T T T"
O        2.53598000       3.43598000      23.63106000       0.00948500      -0.01807100      -0.02859800
O        2.95832000       4.37130000      21.00944000       0.01017000       0.02327700      -0.04419300
O        3.13221000       0.83370000      24.55180000      -0.01017000      -0.02327700       0.04419300
O        0.22274000       3.94458000      22.67632000      -0.01712000       0.00821800      -0.02791100
O        0.72179000       1.26042000      22.88492000       0.01712000      -0.00821800       0.02791100
O        1.14322000       1.34410000      20.26555000       0.02780700       0.00440200      -0.00369000
O        4.94731000       3.86090000      25.29569000      -0.02780700      -0.00440200       0.00369000
O        2.70877000       1.76500000      27.17724000      -0.05598600       0.02689700       0.07433100
O        1.68866000       3.44173000      28.86451000       0.01962500       0.03662100      -0.03319400
O        2.11280000       4.37050000      26.25052000       0.01043300      -0.00517600      -0.01458300
O        4.57242000       1.32028000      30.83846000       0.00933400       0.03863200       0.06644800
O        2.27026000       0.84600000      29.82670000      -0.07265900       0.01300700       0.08785400
O        5.01561000       1.26691000      28.15101000       0.00924800      -0.02799500       0.09524600
O        0.29876000       1.33884000      25.50943000       0.01284400       0.02125000       0.07328700
O        4.09611000       3.84795000      30.52429000       0.00227100       0.01905300       0.02472300
O        1.81339000       1.72549000      32.53002000      -0.07516100       0.00180500       0.11131200
O        0.98617000       3.63013000      34.05826000       0.01884500      -0.05831000      -0.03796200
O        1.26824000       4.33418000      31.46559000       0.08843800      -0.11226800      -0.04540500
O        1.35453000       0.96533000      35.36469000       0.01726100       0.08813900      -0.03539200
O        3.74250000       3.99262000      33.11979000       0.00754700      -0.06295400       0.01044600
O        4.12251000       1.30209000      33.63524000      -0.01368900      -0.01719600      -0.02309100
O        4.52267000       3.94609000      27.91177000      -0.03291800      -0.00349800       0.03413200
O        3.55455000       1.76902000      21.93018000      -0.00948500       0.01807100       0.02859800
O        3.67859000       3.60708000      35.71633000      -0.04189000       0.12535900       0.10588400
O       -0.04164000       1.57487000      11.50298000      -0.01884500       0.05831000       0.03796200
O        2.34803000       1.21238000      12.44145000      -0.00754700       0.06295400      -0.01044600
O        2.41194000       1.59792000       9.84491000       0.04189000      -0.12535900      -0.10588400
O        1.51811000       3.88472000      14.72278000      -0.00933400      -0.03863200      -0.06644800
O        0.64577000       3.86616000      20.05181000      -0.01284400      -0.02125000      -0.07328700
O        4.73600000       4.23967000      10.19656000      -0.01726100      -0.08813900       0.03539200
O        4.27714000       3.47951000      13.03122000       0.07516100      -0.00180500      -0.11131200
O        1.96802000       3.90291000      11.92601000       0.01368900       0.01719600       0.02309100
O        4.40187000       1.76327000      16.69674000      -0.01962500      -0.03662100       0.03319400
O        4.82230000       0.87082000      14.09566000      -0.08843800       0.11226800       0.04540500
O        3.82027000       4.35900000      15.73454000       0.07265900      -0.01300700      -0.08785400
O        3.97773000       0.83450000      19.31073000      -0.01043300       0.00517600       0.01458300
O        1.07493000       3.93809000      17.41023000      -0.00924800       0.02799500      -0.09524600
O        1.56787000       1.25891000      17.64947000       0.03291800       0.00349800      -0.03413200
O        1.99442000       1.35705000      15.03695000      -0.00227100      -0.01905300      -0.02472300
O        3.38176000       3.44000000      18.38401000       0.05598600      -0.02689700      -0.07433100
Zr       2.51237000       2.39268000      34.54351000      -0.00784900      -0.02893400       0.13583000
Zr       0.08378000       2.83864000      32.18381000       0.01405800      -0.05686000       0.12179100
Zr       4.88420000       4.93186000      34.81279000       0.04214100       0.05657300       0.03280000
Zr       2.97355000       0.23090000      31.80601000       0.07013500      -0.01169900       0.01545100
Zr       0.86075000       2.36636000      13.37743000      -0.01405800       0.05686000      -0.12179100
Zr       3.57816000       2.81232000      11.01774000       0.00784900       0.02893400      -0.13583000
Zr       3.11698000       4.97410000      13.75523000      -0.07013500       0.01169900      -0.01545100
Zr       4.71436000       0.21620000      21.26134000      -0.00311700       0.01406400      -0.02754000
Zr       2.22292000       4.98956000      19.05388000       0.01001200      -0.01946300       0.07609000
Zr       2.65845000       2.82400000      16.42165000      -0.01546800       0.02959600       0.00812900
Zr       3.43208000       2.38100000      29.13960000       0.01546800      -0.02959600      -0.00812900
Zr       0.95163000       2.82049000      26.92266000      -0.00200400      -0.00874800      -0.01833000
Zr       0.51788000       4.97467000      29.54767000      -0.03199200       0.02040900       0.06613500
Zr       3.86761000       0.21544000      26.50736000      -0.01001200       0.01946300      -0.07609000
Zr       5.13890000       2.38451000      18.63858000       0.00200400       0.00874800       0.01833000
Zr       4.29163000       2.38560000      23.88258000      -0.00943500      -0.00510600      -0.04043300
Zr       1.79890000       2.81940000      21.67866000       0.00943500       0.00510600       0.04043300
Zr       1.37617000       4.98880000      24.29990000       0.00311700      -0.01406400       0.02754000
Zr       0.42665000       0.23033000      16.01358000       0.03199200      -0.02040900      -0.06613500
Zr       1.20633000       0.27314000      10.74846000      -0.04214100      -0.05657300      -0.03280000
