60
Lattice="5.146 0.0 0.0 0.0 5.205 0.0 0.0 0.0 45.561243" Properties=species:S:1:pos:R:3:forces:R:3 energy=-571.22540969 stress="6.77844 -16.33277 0.03974 -16.33277 9.67078 0.78085 0.03974 0.78085 9.16633" pbc="T T T"
O        2.53611000       3.43817000      23.61630000       0.01925800       0.05229300       0.03169900
O        2.96185000       4.36924000      20.99198000       0.03552000      -0.07548700       0.01767800
O        3.12868000       0.83576000      24.56926000      -0.03552000       0.07548700      -0.01767800
O        0.22519000       3.94179000      22.66016000      -0.03237200       0.01736600       0.04152900
O        0.71935000       1.26321000      22.90109000       0.03237200      -0.01736600      -0.04152900
O        1.14919000       1.33999000      20.27253000       0.01572400       0.03302000      -0.04953800
O        4.94135000       3.86501000      25.28871000      -0.01572400      -0.03302000       0.04953800
O        2.68731000       1.74997000      27.21512000      -0.03927800      -0.06249400       0.06303900
O        1.69823000       3.48139000      28.83436000       0.05695500       0.09009500       0.09329800
O        2.11409000       4.35822000      26.23001000       0.00415300      -0.09373800       0.06028500
O        4.54803000       1.32666000      30.90025000       0.05819400      -0.08986900       0.04336700
O        2.22422000       0.89156000      29.90724000      -0.03822300       0.06282100       0.09306800
O        4.99594000       1.26687000      28.19833000       0.01171000       0.00174200       0.04428300
O        0.29000000       1.33612000      25.53744000       0.02084200       0.02380700      -0.01379500
O        4.09460000       3.86415000      30.54999000       0.04970500      -0.07303400       0.02186100
O        1.75690000       1.63461000      32.66421000       0.01051000      -0.03309600      -0.03682300
O        1.04624000       3.68198000      34.07356000       0.00223800      -0.06298800       0.05273300
O        1.33172000       4.23104000      31.43829000      -0.05455300      -0.02269200       0.09982800
O        1.31943000       1.03299000      35.45708000       0.06570300      -0.01412400       0.04260600
O        3.77398000       3.97715000      33.16239000      -0.02064100      -0.00643000      -0.01496500
O        4.10433000       1.29818000      33.69541000       0.00020700       0.01832300       0.06572100
O        4.50876000       3.94038000      27.91856000       0.01032300       0.02257200       0.07548100
O        3.55442000       1.76683000      21.94495000      -0.01925800      -0.05229300      -0.03169900
O        3.71059000       3.64439000      35.78360000      -0.10387400       0.05740400      -0.07343500
O       -0.10171000       1.52302000      11.48768000      -0.00223800       0.06298800      -0.05273300
O        2.31656000       1.22785000      12.39885000       0.02064100       0.00643000       0.01496500
O        2.37995000       1.56061000       9.77764000       0.10387400      -0.05740400       0.07343500
O        1.54250000       3.87834000      14.66100000      -0.05819400       0.08986900      -0.04336700
O        0.65453000       3.86888000      20.02381000      -0.02084200      -0.02380700       0.01379500
O        4.77110000       4.17201000      10.10416000      -0.06570300       0.01412400      -0.04260600
O        4.33363000       3.57039000      12.89703000      -0.01051000       0.03309600       0.03682300
O        1.98620000       3.90682000      11.86583000      -0.00020700      -0.01832300      -0.06572100
O        4.39230000       1.72361000      16.72688000      -0.05695500      -0.09009500      -0.09329800
O        4.75881000       0.97396000      14.12295000       0.05455300       0.02269200      -0.09982800
O        3.86632000       4.31344000      15.65401000       0.03822300      -0.06282100      -0.09306800
O        3.97645000       0.84678000      19.33123000      -0.00415300       0.09373800      -0.06028500
O        1.09459000       3.93813000      17.36292000      -0.01171000      -0.00174200      -0.04428300
O        1.58178000       1.26462000      17.64268000      -0.01032300      -0.02257200      -0.07548100
O        1.99593000       1.34085000      15.01125000      -0.04970500       0.07303400      -0.02186100
O        3.40322000       3.45503000      18.34612000       0.03927800       0.06249400      -0.06303900
Zr       2.52049000       2.40425000      34.62569000       0.01801000       0.00147500       0.03429700
Zr       0.10243000       2.81924000      32.24353000       0.00078500       0.00182200      -0.09232400
Zr       4.91258000       4.94785000      34.85440000       0.01771000       0.07455700       0.08165400
Zr       2.97024000       0.21452000      31.85204000      -0.02357200       0.04280300       0.10596200
Zr       0.84211000       2.38576000      13.31771000      -0.00078500      -0.00182200       0.09232400
Zr       3.57004000       2.80075000      10.93555000      -0.01801000      -0.00147500      -0.03429700
Zr       3.12029000       4.99048000      13.70920000       0.02357200      -0.04280300      -0.10596200
Zr       4.71661000       0.22217000      21.25900000       0.00198800      -0.01983500      -0.02810300
Zr       2.23326000       4.98544000      19.04357000      -0.00932000       0.00098900      -0.04846700
Zr       2.67668000       2.82305000      16.39076000      -0.04292400       0.00192300       0.00156200
Zr       3.41386000       2.38195000      29.17048000       0.04292400      -0.00192300      -0.00156200
Zr       0.94237000       2.82764000      26.93463000      -0.04246900      -0.00371600      -0.04794100
Zr       0.50725000       4.96308000      29.58243000      -0.02093200       0.04315400      -0.08609000
Zr       3.85727000       0.21956000      26.51767000       0.00932000      -0.00098900       0.04846700
Zr       0.00216000       2.37736000      18.62662000       0.04246900       0.00371600       0.04794100
Zr       4.28946000       2.38368000      23.88310000      -0.01371100      -0.02501100       0.08739500
Zr       1.80107000       2.82132000      21.67814000       0.01371100       0.02501100      -0.08739500
Zr       1.37393000       4.98283000      24.30224000      -0.00198800       0.01983500       0.02810300
Zr       0.43728000       0.24192000      15.97881000       0.02093200      -0.04315400       0.08609000
Zr       1.17795000       0.25715000      10.70685000      -0.01771000      -0.07455700      -0.08165400
