60
Lattice="5.146 0.0 0.0 0.0 5.205 0.0 0.0 0.0 45.561243" Properties=species:S:1:pos:R:3:forces:R:3 energy=-571.2621563 stress="4.99347 -16.36742 -0.75795 -16.36742 7.37478 0.38187 -0.75795 0.38187 6.86301" pbc="T T T"
O        2.54106000       3.44836000      23.61711000      -0.00114600       0.03376900      -0.03104100
O        2.97092000       4.35593000      20.98870000       0.03029300       0.04636700      -0.20826000
O        3.11961000       0.84907000      24.57254000      -0.03029300      -0.04636700       0.20826000
O        0.21876000       3.94038000      22.66116000       0.04588800       0.04458200      -0.00588600
O        0.72577000       1.26462000      22.90008000      -0.04588800      -0.04458200       0.00588600
O        1.15686000       1.33969000      20.26656000      -0.01281500       0.01855500      -0.13859500
O        4.93367000       3.86531000      25.29468000       0.01281500      -0.01855500       0.13859500
O        2.67108000       1.73135000      27.23538000      -0.03422300      -0.03121800       0.12931300
O        1.71382000       3.51111000      28.83548000       0.02599200       0.00643400      -0.01662900
O        2.11827000       4.33874000      26.23183000       0.05935900       0.00211300       0.03642000
O        4.55112000       1.30907000      30.92799000      -0.04152800      -0.02031300       0.04438300
O        2.19973000       0.92253000      29.95261000       0.00682700       0.01670500       0.07466800
O        4.99156000       1.27221000      28.21977000      -0.00980500      -0.02217500      -0.01735300
O        0.29147000       1.33454000      25.54566000      -0.05484600       0.01302400       0.09681400
O        4.10227000       3.86050000      30.56144000       0.04723100      -0.11802000      -0.02128100
O        1.73562000       1.59530000      32.70946000      -0.01391200       0.07884800       0.02451700
O        1.06637000       3.69188000      34.09395000      -0.11344000      -0.01836400      -0.00784400
O        1.35263000       4.19025000      31.44329000      -0.01703700       0.11510200       0.02229100
O        1.31645000       1.05431000      35.49977000       0.04717200      -0.04905000       0.06530600
O        3.78223000       3.96781000      33.17610000       0.03487800       0.02372300      -0.02348800
O        4.09805000       1.29895000      33.73189000       0.02047500      -0.02269100       0.02422800
O        4.50317000       3.93878000      27.92808000       0.04721900       0.05753300       0.07102300
O        3.54947000       1.75664000      21.94413000       0.00114600      -0.03376900       0.03104100
O        3.70536000       3.67669000      35.79979000      -0.06289900       0.00670800      -0.00825000
O       -0.12184000       1.51312000      11.46729000       0.11344000       0.01836400       0.00784400
O        2.30830000       1.23719000      12.38514000      -0.03487800      -0.02372300       0.02348800
O        2.38517000       1.52831000       9.76145000       0.06289900      -0.00670800       0.00825000
O        1.53941000       3.89593000      14.63326000       0.04152800       0.02031300      -0.04438300
O        0.65306000       3.87046000      20.01559000       0.05484600      -0.01302400      -0.09681400
O        4.77408000       4.15069000      10.06147000      -0.04717200       0.04905000      -0.06530600
O        4.35491000       3.60970000      12.85178000       0.01391200      -0.07884800      -0.02451700
O        1.99249000       3.90605000      11.82935000      -0.02047500       0.02269100      -0.02422800
O        4.37671000       1.69389000      16.72576000      -0.02599200      -0.00643400       0.01662900
O        4.73791000       1.01475000      14.11795000       0.01703700      -0.11510200      -0.02229100
O        3.89081000       4.28247000      15.60863000      -0.00682700      -0.01670500      -0.07466800
O        3.97227000       0.86626000      19.32941000      -0.05935900      -0.00211300      -0.03642000
O        1.09897000       3.93279000      17.34147000       0.00980500       0.02217500       0.01735300
O        1.58736000       1.26622000      17.63316000      -0.04721900      -0.05753300      -0.07102300
O        1.98826000       1.34450000      14.99980000      -0.04723100       0.11802000       0.02128100
O        3.41945000       3.47365000      18.32587000       0.03422300       0.03121800      -0.12931300
Zr       2.52730000       2.41000000      34.65779000      -0.02888100       0.04999000       0.03431200
Zr       0.10895000       2.81470000      32.25330000       0.00239200      -0.01379100       0.06205700
Zr       4.92921000       4.96103000      34.88038000       0.04886900       0.00368400      -0.02799100
Zr       2.96269000       0.21318000      31.88908000       0.01236200      -0.06164600      -0.03720500
Zr       0.83558000       2.39030000      13.30794000      -0.00239200       0.01379100      -0.06205700
Zr       3.56323000       2.79500000      10.90345000       0.02888100      -0.04999000      -0.03431200
Zr       3.12784000       4.99182000      13.67217000      -0.01236200       0.06164600       0.03720500
Zr       4.71940000       0.22450000      21.25006000      -0.01912400       0.00359300       0.21582300
Zr       2.23629000       4.98376000      19.02699000       0.08797900       0.00277400       0.14870700
Zr       2.68006000       2.82424000      16.37164000       0.09639600       0.02195000      -0.06050100
Zr       3.41048000       2.38076000      29.18961000      -0.09639600      -0.02195000       0.06050100
Zr       0.93173000       2.83298000      26.94335000       0.09790600      -0.05274600      -0.03579700
Zr       0.50213000       4.96192000      29.59160000       0.09740500       0.05599000       0.13974300
Zr       3.85424000       0.22124000      26.53426000      -0.08797900      -0.00277400      -0.14870700
Zr       0.01281000       2.37202000      18.61789000      -0.09790600       0.05274600       0.03579700
Zr       4.28754000       2.37915000      23.89483000      -0.00301300       0.04693400      -0.23589700
Zr       1.80299000       2.82585000      21.66641000       0.00301300      -0.04693400       0.23589700
Zr       1.37113000       4.98050000      24.31119000       0.01912400      -0.00359300      -0.21582300
Zr       0.44240000       0.24308000      15.96964000      -0.09740500      -0.05599000      -0.13974300
Zr       1.16133000       0.24397000      10.68087000      -0.04886900      -0.00368400       0.02799100
