60
Lattice="5.146 0.0 0.0 0.0 5.205 0.0 0.0 0.0 45.561243" Properties=species:S:1:pos:R:3:forces:R:3 energy=-571.33293029 stress="5.82055 -16.46451 -0.17078 -16.46451 4.45154 0.08493 -0.17078 0.08493 5.20139" pbc="T T T"
O        2.55627000       3.47846000      23.58986000       0.07593100       0.02817500      -0.02283800
O        2.99783000       4.32484000      20.93676000       0.04206000      -0.03966900       0.00364200
O        3.09270000       0.88016000      24.62448000      -0.04206000       0.03966900      -0.00364200
O        0.22867000       3.94131000      22.65715000      -0.02470100      -0.01011700      -0.03044200
O        0.71586000       1.26369000      22.90410000       0.02470100       0.01011700       0.03044200
O        1.15051000       1.34499000      20.25282000       0.03264700      -0.00841600       0.04882800
O        4.94002000       3.86001000      25.30842000      -0.03264700       0.00841600      -0.04882800
O        2.63467000       1.68281000      27.31102000      -0.01110300      -0.02092100      -0.02983500
O        1.74225000       3.55227000      28.83995000       0.03882900      -0.02549900       0.01279300
O        2.13581000       4.30185000      26.21938000       0.07651700      -0.02490300      -0.01155600
O        4.54103000       1.28153000      30.98212000       0.03635200       0.01290800      -0.01465900
O        2.17363000       0.95797000      30.03231000       0.01764000       0.00178500       0.00106100
O        4.98101000       1.28155000      28.25607000       0.01814700      -0.02242500      -0.00042600
O        0.27540000       1.32970000      25.56759000       0.01817100      -0.00596400       0.01544500
O        4.12945000       3.83011000      30.58858000      -0.08703300       0.01919500      -0.02876600
O        1.73230000       1.58037000      32.78359000      -0.02666300       0.01301500      -0.05141000
O        1.05644000       3.68873000      34.11963000       0.04226300      -0.01253200       0.07201600
O        1.35754000       4.17992000      31.47199000       0.09233300       0.06774300       0.01592400
O        1.33046000       1.05907000      35.57131000      -0.02856400      -0.03062200      -0.00589900
O        3.79685000       3.96615000      33.19807000      -0.03550100       0.04265000      -0.00515400
O        4.09671000       1.30712000      33.78501000       0.03834300      -0.01783800       0.02534500
O        4.52229000       3.94836000      27.95271000      -0.05652900      -0.01917400      -0.01697100
O        3.53427000       1.72654000      21.97138000      -0.07593100      -0.02817500       0.02283800
O        3.68852000       3.72189000      35.82269000      -0.01593800      -0.04215200       0.03022000
O       -0.11191000       1.51627000      11.44162000      -0.04226300       0.01253200      -0.07201600
O        2.29369000       1.23885000      12.36317000       0.03550100      -0.04265000       0.00515400
O        2.40201000       1.48311000       9.73855000       0.01593800       0.04215200      -0.03022000
O        1.54950000       3.92347000      14.57912000      -0.03635200      -0.01290800       0.01465900
O        0.66913000       3.87530000      19.99365000      -0.01817100       0.00596400      -0.01544500
O        4.76007000       4.14593000       9.98993000       0.02856400       0.03062200       0.00589900
O        4.35823000       3.62463000      12.77765000       0.02666300      -0.01301500       0.05141000
O        1.99382000       3.89788000      11.77623000      -0.03834300       0.01783800      -0.02534500
O        4.34828000       1.65273000      16.72129000      -0.03882900       0.02549900      -0.01279300
O        4.73299000       1.02507000      14.08925000      -0.09233300      -0.06774300      -0.01592400
O        3.91690000       4.24703000      15.52893000      -0.01764000      -0.00178500      -0.00106100
O        3.95472000       0.90315000      19.34186000      -0.07651700       0.02490300       0.01155600
O        1.10952000       3.92345000      17.30518000      -0.01814700       0.02242500       0.00042600
O        1.56824000       1.25664000      17.60853000       0.05652900       0.01917400       0.01697100
O        1.96108000       1.37489000      14.97266000       0.08703300      -0.01919500       0.02876600
O        3.45586000       3.52219000      18.25022000       0.01110300       0.02092100       0.02983500
Zr       2.51959000       2.41719000      34.70738000       0.05107300       0.04796200       0.02610500
Zr       0.11564000       2.80317000      32.28816000      -0.04740000       0.00759200       0.07169600
Zr       4.94407000       4.97948000      34.91472000      -0.03919300      -0.02809800       0.01540700
Zr       2.95928000       0.20633000      31.93640000      -0.03544600      -0.00665300       0.03063000
Zr       0.82889000       2.40183000      13.27308000       0.04740000      -0.00759200      -0.07169600
Zr       3.57095000       2.78781000      10.85387000      -0.05107300      -0.04796200      -0.02610500
Zr       3.13125000       4.99867000      13.62484000       0.03544600       0.00665300      -0.03063000
Zr       4.72223000       0.22711000      21.24592000       0.04000200      -0.00122700      -0.04990700
Zr       2.24498000       4.98566000      19.00879000       0.03908500       0.00360900      -0.07302600
Zr       2.68729000       2.83085000      16.33585000       0.08714800       0.01344400      -0.08389400
Zr       3.40324000       2.37415000      29.22539000      -0.08714800      -0.01344400       0.08389400
Zr       0.93072000       2.83049000      26.96918000       0.06741800      -0.00330600       0.04503100
Zr       0.50603000       4.96513000      29.63212000       0.07180200       0.00995500       0.02052600
Zr       3.84555000       0.21934000      26.55245000      -0.03908500      -0.00360900       0.07302600
Zr       0.01381000       2.37451000      18.59207000      -0.06741800       0.00330600      -0.04503100
Zr       4.28179000       2.37683000      23.89416000       0.05670500       0.01802800       0.06744900
Zr       1.80874000       2.82817000      21.66709000      -0.05670500      -0.01802800      -0.06744900
Zr       1.36830000       4.97789000      24.31532000      -0.04000200       0.00122700       0.04990700
Zr       0.43850000       0.23987000      15.92912000      -0.07180200      -0.00995500      -0.02052600
Zr       1.14646000       0.22552000      10.64652000       0.03919300       0.02809800      -0.01540700
