60
Lattice="5.146 0.0 0.0 0.0 5.205 0.0 0.0 0.0 45.561243" Properties=species:S:1:pos:R:3:forces:R:3 energy=-571.34028309 stress="5.66774 -16.43648 -0.24659 -16.43648 4.19975 0.03029 -0.24659 0.03029 4.82045" pbc="T T T"
O        2.56211000       3.48767000      23.58405000       0.06886100       0.02223900      -0.02794800
O        3.00481000       4.31512000      20.92854000       0.03364100      -0.01470200      -0.04769300
O        3.08572000       0.88988000      24.63270000      -0.03364100       0.01470200       0.04769300
O        0.22989000       3.94071000      22.65342000      -0.01611300      -0.01091600      -0.02711200
O        0.71464000       1.26429000      22.90782000       0.01611300       0.01091600       0.02711200
O        1.15000000       1.34502000      20.25391000       0.01215700      -0.01755900       0.00723800
O        4.94054000       3.85998000      25.30733000      -0.01215700       0.01755900      -0.00723800
O        2.62929000       1.67057000      27.32112000      -0.03660100       0.05059100       0.04214300
O        1.74727000       3.55767000      28.84352000       0.04417700      -0.04455000       0.01965600
O        2.14183000       4.29230000      26.21710000       0.06549600      -0.03110500       0.01424600
O        4.54254000       1.28008000      30.98906000       0.00986200       0.01107200       0.00470900
O        2.17123000       0.96089000      30.04032000       0.02252900      -0.01316400       0.04075900
O        4.98096000       1.28253000      28.26350000       0.00755500      -0.02003300       0.03152400
O        0.27409000       1.32892000      25.57333000       0.00753400      -0.01090100       0.05762400
O        4.13049000       3.82816000      30.59427000      -0.09094200       0.02595400      -0.03456700
O        1.73724000       1.58300000      32.79268000      -0.06971600       0.01957500      -0.06775300
O        1.05513000       3.68608000      34.12646000       0.01120800       0.02304900       0.09417800
O        1.35451000       4.18080000      31.48069000       0.14031500       0.09513700       0.00075500
O        1.33250000       1.05661000      35.57808000      -0.04578100      -0.03984500       0.00293800
O        3.79563000       3.96829000      33.20336000      -0.01894200       0.04389500       0.00783900
O        4.09897000       1.31103000      33.79226000       0.03784200      -0.03665100       0.03488900
O        4.52437000       3.94859000      27.95374000      -0.04765100      -0.04223600       0.04301500
O        3.52842000       1.71733000      21.97719000      -0.06886100      -0.02223900       0.02794800
O        3.68695000       3.72521000      35.82732000      -0.02327200      -0.04981700       0.05521400
O       -0.11060000       1.51892000      11.43479000      -0.01120800      -0.02304900      -0.09417800
O        2.29491000       1.23671000      12.35789000       0.01894200      -0.04389500      -0.00783900
O        2.40358000       1.47979000       9.73392000       0.02327200       0.04981700      -0.05521400
O        1.54799000       3.92492000      14.57219000      -0.00986200      -0.01107200      -0.00470900
O        0.67044000       3.87608000      19.98791000      -0.00753400       0.01090100      -0.05762400
O        4.75803000       4.14839000       9.98316000       0.04578100       0.03984500      -0.00293800
O        4.35329000       3.62200000      12.76856000       0.06971600      -0.01957500       0.06775300
O        1.99156000       3.89397000      11.76898000      -0.03784200       0.03665100      -0.03488900
O        4.34326000       1.64733000      16.71772000      -0.04417700       0.04455000      -0.01965600
O        4.73603000       1.02420000      14.08055000      -0.14031500      -0.09513700      -0.00075500
O        3.91930000       4.24411000      15.52092000      -0.02252900       0.01316400      -0.04075900
O        3.94870000       0.91270000      19.34415000      -0.06549600       0.03110500      -0.01424600
O        1.10957000       3.92247000      17.29774000      -0.00755500       0.02003300      -0.03152400
O        1.56616000       1.25641000      17.60750000       0.04765100       0.04223600      -0.04301500
O        1.96005000       1.37684000      14.96697000       0.09094200      -0.02595400       0.03456700
O        3.46125000       3.53443000      18.24013000       0.03660100      -0.05059100      -0.04214300
Zr       2.51786000       2.41605000      34.71592000       0.05392800       0.06454600       0.00333000
Zr       0.11473000       2.80365000      32.29428000      -0.04802200      -0.00150200       0.08155900
Zr       4.94136000       4.98021000      34.92042000       0.01500900      -0.04969400      -0.00647200
Zr       2.95843000       0.20787000      31.94576000      -0.02601400      -0.02170800      -0.01918600
Zr       0.82980000       2.40135000      13.26696000       0.04802200       0.00150200      -0.08155900
Zr       3.57268000       2.78895000      10.84532000      -0.05392800      -0.06454600      -0.00333000
Zr       3.13210000       4.99713000      13.61549000       0.02601400       0.02170800       0.01918600
Zr       4.72179000       0.22793000      21.24534000       0.05332100       0.00675400      -0.02456400
Zr       2.24741000       4.98424000      19.00002000      -0.01732400       0.05314500       0.06869600
Zr       2.68853000       2.83376000      16.32658000       0.04547100      -0.01967700      -0.01706500
Zr       3.40200000       2.37124000      29.23466000      -0.04547100       0.01967700       0.01706500
Zr       0.93328000       2.82964000      26.97433000       0.02650100       0.01681400      -0.05122500
Zr       0.50777000       4.96485000      29.63716000       0.03097000      -0.00202500      -0.00207100
Zr       3.84312000       0.22076000      26.56122000       0.01732400      -0.05314500      -0.06869600
Zr       0.01125000       2.37536000      18.58691000      -0.02650100      -0.01681400       0.05122500
Zr       4.28071000       2.37515000      23.89832000       0.06330400       0.03944200       0.01397400
Zr       1.80982000       2.82985000      21.66292000      -0.06330400      -0.03944200      -0.01397400
Zr       1.36874000       4.97707000      24.31590000      -0.05332100      -0.00675400       0.02456400
Zr       0.43676000       0.24015000      15.92408000      -0.03097000       0.00202500       0.00207100
Zr       1.14917000       0.22479000      10.64082000      -0.01500900       0.04969400       0.00647200
