60
Lattice="5.146 0.0 0.0 0.0 5.205 0.0 0.0 0.0 45.561243" Properties=species:S:1:pos:R:3:forces:R:3 energy=-571.34109606 stress="5.60038 -16.42172 -0.28573 -16.42172 4.0797 0.00672 -0.28573 0.00672 4.63172" pbc="T T T"
O        2.56500000       3.49222000      23.58118000       0.06475800       0.01812900      -0.02975500
O        3.00825000       4.31032000      20.92448000       0.02975900      -0.00148400      -0.07062800
O        3.08228000       0.89468000      24.63676000      -0.02975900       0.00148400       0.07062800
O        0.23049000       3.94042000      22.65158000      -0.01192900      -0.01026100      -0.02541700
O        0.71404000       1.26458000      22.90966000       0.01192900       0.01026100       0.02541700
O        1.14974000       1.34504000      20.25444000       0.00191400      -0.02179200      -0.01202000
O        4.94079000       3.85996000      25.30680000      -0.00191400       0.02179200       0.01202000
O        2.62663000       1.66453000      27.32610000      -0.04955200       0.08881600       0.07673800
O        1.74975000       3.56033000      28.84528000       0.04663100      -0.05510300       0.02289800
O        2.14480000       4.28758000      26.21597000       0.06044600      -0.03411700       0.02756900
O        4.54329000       1.27936000      30.99248000      -0.00221400       0.00939700       0.01341500
O        2.17005000       0.96233000      30.04427000       0.02532400      -0.02147900       0.06173400
O        4.98093000       1.28301000      28.26718000       0.00194200      -0.02008700       0.04676200
O        0.27344000       1.32854000      25.57616000       0.00229700      -0.01257300       0.07620500
O        4.13100000       3.82720000      30.59709000      -0.09290200       0.02850400      -0.03638100
O        1.73967000       1.58430000      32.79716000      -0.09106200       0.02256800      -0.07422500
O        1.05449000       3.68478000      34.12983000      -0.00436500       0.04053400       0.10529600
O        1.35301000       4.18123000      31.48499000       0.16389200       0.10795700      -0.00578700
O        1.33350000       1.05539000      35.58143000      -0.05391600      -0.04267600       0.00824800
O        3.79502000       3.96935000      33.20597000      -0.01046400       0.04332100       0.01483400
O        4.10008000       1.31296000      33.79585000       0.03672000      -0.04627400       0.03961500
O        4.52540000       3.94871000      27.95425000      -0.04310100      -0.05362300       0.07228200
O        3.52553000       1.71278000      21.98006000      -0.06475800      -0.01812900       0.02975500
O        3.68618000       3.72685000      35.82961000      -0.02716300      -0.05423900       0.06899000
O       -0.10996000       1.52022000      11.43141000       0.00436500      -0.04053400      -0.10529600
O        2.29551000       1.23565000      12.35528000       0.01046400      -0.04332100      -0.01483400
O        2.40435000       1.47815000       9.73164000       0.02716300       0.05423900      -0.06899000
O        1.54725000       3.92564000      14.56876000       0.00221400      -0.00939700      -0.01341500
O        0.67109000       3.87646000      19.98508000      -0.00229700       0.01257300      -0.07620500
O        4.75703000       4.14961000       9.97982000       0.05391600       0.04267600      -0.00824800
O        4.35086000       3.62070000      12.76408000       0.09106200      -0.02256800       0.07422500
O        1.99045000       3.89204000      11.76540000      -0.03672000       0.04627400      -0.03961500
O        4.34078000       1.64467000      16.71596000      -0.04663100       0.05510300      -0.02289800
O        4.73752000       1.02377000      14.07626000      -0.16389200      -0.10795700       0.00578700
O        3.92048000       4.24267000      15.51697000      -0.02532400       0.02147900      -0.06173400
O        3.94573000       0.91742000      19.34527000      -0.06044600       0.03411700      -0.02756900
O        1.10960000       3.92199000      17.29407000      -0.00194200       0.02008700      -0.04676200
O        1.56513000       1.25629000      17.60699000       0.04310100       0.05362300      -0.07228200
O        1.95953000       1.37780000      14.96416000       0.09290200      -0.02850400       0.03638100
O        3.46390000       3.54047000      18.23514000       0.04955200      -0.08881600      -0.07673800
Zr       2.51700000       2.41549000      34.72014000       0.05482800       0.07260700      -0.00966200
Zr       0.11428000       2.80388000      32.29730000      -0.04840000      -0.00576200       0.08402300
Zr       4.94003000       4.98056000      34.92324000       0.04199700      -0.05978600      -0.01962500
Zr       2.95801000       0.20863000      31.95037000      -0.02158500      -0.02957700      -0.04640800
Zr       0.83025000       2.40112000      13.26394000       0.04840000       0.00576200      -0.08402300
Zr       3.57353000       2.78951000      10.84111000      -0.05482800      -0.07260700       0.00966200
Zr       3.13252000       4.99637000      13.61087000       0.02158500       0.02957700       0.04640800
Zr       4.72157000       0.22834000      21.24505000       0.05915500       0.01063500      -0.01199400
Zr       2.24861000       4.98353000      18.99569000      -0.04512500       0.07825600       0.13871300
Zr       2.68914000       2.83519000      16.32201000       0.02475900      -0.03625900       0.01617900
Zr       3.40140000       2.36981000      29.23923000      -0.02475900       0.03625900      -0.01617900
Zr       0.93454000       2.82923000      26.97688000       0.00714800       0.02674500      -0.09877300
Zr       0.50863000       4.96471000      29.63965000       0.01123600      -0.00780900      -0.01492900
Zr       3.84192000       0.22147000      26.56555000       0.04512500      -0.07825600      -0.13871300
Zr       0.00999000       2.37577000      18.58436000      -0.00714800      -0.02674500       0.09877300
Zr       4.28018000       2.37432000      23.90037000       0.06556100       0.05010000      -0.01221300
Zr       1.81035000       2.83068000      21.66087000      -0.06556100      -0.05010000       0.01221300
Zr       1.36896000       4.97666000      24.31619000      -0.05915500      -0.01063500       0.01199400
Zr       0.43590000       0.24029000      15.92159000      -0.01123600       0.00780900       0.01492900
Zr       1.15050000       0.22444000      10.63801000      -0.04199700       0.05978600       0.01962500
