60
Lattice="5.146 0.0 0.0 0.0 5.205 0.0 0.0 0.0 45.561243" Properties=species:S:1:pos:R:3:forces:R:3 energy=-571.38132518 stress="3.80813 -16.42123 -0.27102 -16.42123 1.2641 0.20264 -0.27102 0.20264 0.43793" pbc="T T T"
O        2.60657000       3.54941000      23.53850000      -0.00293900      -0.00243900       0.00011900
O        3.04071000       4.25942000      20.86292000       0.00166200       0.00084400       0.01016600
O        3.04982000       0.94558000      24.69833000      -0.00166200      -0.00084400      -0.01016600
O        0.24128000       3.93493000      22.63480000      -0.00136000      -0.00691800      -0.00133200
O        0.70325000       1.27007000      22.92644000       0.00136000       0.00691800       0.00133200
O        1.13578000       1.33933000      20.25415000      -0.00111300      -0.00954500       0.00656900
O        4.95475000       3.86567000      25.30709000       0.00111300       0.00954500      -0.00656900
O        2.61032000       1.63626000      27.38302000       0.00415100       0.00145000      -0.00459000
O        1.75798000       3.56532000      28.86673000       0.00537200       0.00140600      -0.00064600
O        2.17719000       4.24442000      26.20512000      -0.00320100      -0.00081300      -0.00628600
O        4.54232000       1.30053000      31.03074000      -0.00594200      -0.00602700       0.00126900
O        2.16989000       0.96993000      30.08893000       0.00428900       0.00722100       0.00130600
O        4.97787000       1.27142000      28.30205000      -0.00108800       0.01036300      -0.00055000
O        0.26844000       1.32260000      25.60746000       0.00251500      -0.00298500      -0.01020900
O        4.12421000       3.84852000      30.62519000      -0.00070300       0.01078000       0.00740900
O        1.73204000       1.60105000      32.82533000       0.01601100      -0.01590900      -0.00084700
O        1.04891000       3.68756000      34.18732000      -0.00202800      -0.00162700       0.00315200
O        1.35906000       4.19398000      31.52413000       0.00186700      -0.00148400       0.00383400
O        1.32551000       1.04824000      35.61769000      -0.00124300      -0.00117800       0.00247800
O        3.78934000       3.97879000      33.25276000       0.00038900       0.00037400       0.00067700
O        4.09796000       1.31148000      33.84188000      -0.01124200       0.00696300      -0.00571700
O        4.53011000       3.93139000      27.97242000      -0.00344700      -0.00406600       0.00097300
O        3.48396000       1.65559000      22.02274000       0.00293900       0.00243900      -0.00011900
O        3.68249000       3.70534000      35.88634000      -0.00516000       0.00050300      -0.00068100
O       -0.10438000       1.51744000      11.37392000       0.00202800       0.00162700      -0.00315200
O        2.30120000       1.22621000      12.30848000      -0.00038900      -0.00037400      -0.00067700
O        2.40804000       1.49966000       9.67490000       0.00516000      -0.00050300       0.00068100
O        1.54821000       3.90447000      14.53050000       0.00594200       0.00602700      -0.00126900
O        0.67609000       3.88240000      19.95378000      -0.00251500       0.00298500       0.01020900
O        4.76502000       4.15676000       9.94355000       0.00124300       0.00117800      -0.00247800
O        4.35849000       3.60395000      12.73591000      -0.01601100       0.01590900       0.00084700
O        1.99257000       3.89352000      11.71936000       0.01124200      -0.00696300       0.00571700
O        4.33255000       1.63968000      16.69451000      -0.00537200      -0.00140600       0.00064600
O        4.73147000       1.01102000      14.03712000      -0.00186700       0.00148400      -0.00383400
O        3.92064000       4.23507000      15.47231000      -0.00428900      -0.00722100      -0.00130600
O        3.91335000       0.96058000      19.35612000       0.00320100       0.00081300       0.00628600
O        1.11266000       3.93358000      17.25920000       0.00108800      -0.01036300       0.00055000
O        1.56042000       1.27361000      17.58883000       0.00344700       0.00406600      -0.00097300
O        1.96632000       1.35648000      14.93605000       0.00070300      -0.01078000      -0.00740900
O        3.48022000       3.56874000      18.17822000      -0.00415100      -0.00145000       0.00459000
Zr       2.51548000       2.41533000      34.76324000      -0.00306000       0.00332000       0.00843200
Zr       0.11046000       2.81761000      32.34236000       0.00414200       0.00216800       0.00647100
Zr       4.92989000       4.97426000      34.97456000      -0.00302700      -0.01014500       0.01432200
Zr       2.95848000       0.22233000      31.98623000      -0.00692600       0.01087000       0.00797200
Zr       0.83407000       2.38738000      13.21888000      -0.00414200      -0.00216800      -0.00647100
Zr       3.57505000       2.78967000      10.79801000       0.00306000      -0.00332000      -0.00843200
Zr       3.13205000       4.98267000      13.57501000       0.00692600      -0.01087000      -0.00797200
Zr       4.71531000       0.22801000      21.23772000       0.00094700      -0.00208300      -0.01614800
Zr       2.24696000       4.98810000      18.97279000       0.00566600      -0.01093200      -0.02334900
Zr       2.68460000       2.83402000      16.28679000       0.00580600       0.00535300      -0.00055900
Zr       3.40593000       2.37098000      29.27446000      -0.00580600      -0.00535300       0.00055900
Zr       0.94428000       2.82291000      26.99598000       0.00915600      -0.00103500       0.01544300
Zr       0.51743000       4.96511000      29.67107000      -0.00040600       0.00484100       0.00766500
Zr       3.84357000       0.21690000      26.58846000      -0.00566600       0.01093200       0.02334900
Zr       0.00025000       2.38209000      18.56527000      -0.00915600       0.00103500      -0.01544300
Zr       4.27797000       2.37461000      23.91138000       0.00682600      -0.00279600       0.00880100
Zr       1.81256000       2.83039000      21.64986000      -0.00682600       0.00279600      -0.00880100
Zr       1.37522000       4.97699000      24.32353000      -0.00094700       0.00208300       0.01614800
Zr       0.42710000       0.23989000      15.89017000       0.00040600      -0.00484100      -0.00766500
Zr       1.16064000       0.23074000      10.58669000       0.00302700       0.01014500      -0.01432200
