60
Lattice="5.146 0.0 0.0 0.0 5.205 0.0 0.0 0.0 45.561243" Properties=species:S:1:pos:R:3:forces:R:3 energy=-571.38144246 stress="3.80216 -16.42611 -0.27545 -16.42611 1.25781 0.20854 -0.27545 0.20854 0.39735" pbc="T T T"
O        2.60645000       3.54945000      23.53855000      -0.00199700      -0.00337600       0.00033100
O        3.04065000       4.25933000      20.86279000       0.00184400       0.00175800       0.00795600
O        3.04988000       0.94567000      24.69845000      -0.00184400      -0.00175800      -0.00795600
O        0.24118000       3.93488000      22.63476000      -0.00023100      -0.00624600      -0.00231000
O        0.70335000       1.27012000      22.92649000       0.00023100       0.00624600       0.00231000
O        1.13586000       1.33914000      20.25408000      -0.00142900      -0.00868900       0.00481900
O        4.95468000       3.86586000      25.30716000       0.00142900       0.00868900      -0.00481900
O        2.61048000       1.63653000      27.38326000       0.00413600       0.00167500      -0.00364900
O        1.75805000       3.56546000      28.86717000       0.00489600       0.00245800      -0.00081200
O        2.17710000       4.24462000      26.20540000      -0.00188800      -0.00030500      -0.00501200
O        4.54233000       1.30057000      31.03118000      -0.00445200      -0.00283300       0.00254200
O        2.17013000       0.97026000      30.08936000       0.00112300       0.00566100       0.00132700
O        4.97814000       1.27178000      28.30236000      -0.00211200       0.00899700       0.00061000
O        0.26853000       1.32274000      25.60766000       0.00134300      -0.00244100      -0.00779200
O        4.12417000       3.84889000      30.62531000       0.00105800       0.00858400       0.00863000
O        1.73177000       1.60082000      32.82589000       0.01217200      -0.01126100      -0.00001300
O        1.04889000       3.68761000      34.18784000      -0.00290200      -0.00122600       0.00247100
O        1.35909000       4.19439000      31.52464000      -0.00105800      -0.00497000       0.00362900
O        1.32514000       1.04839000      35.61837000      -0.00206100      -0.00282300       0.00264800
O        3.78934000       3.97876000      33.25303000      -0.00002200      -0.00086700       0.00168700
O        4.09748000       1.31112000      33.84229000      -0.00929700       0.00705100      -0.00485700
O        4.53023000       3.93159000      27.97254000      -0.00368900      -0.00331400       0.00271700
O        3.48408000       1.65555000      22.02269000       0.00199700       0.00337600      -0.00033100
O        3.68237000       3.70495000      35.88661000      -0.00587100      -0.00036000       0.00175100
O       -0.10436000       1.51739000      11.37340000       0.00290200       0.00122600      -0.00247100
O        2.30119000       1.22624000      12.30821000       0.00002200       0.00086700      -0.00168700
O        2.40816000       1.50005000       9.67463000       0.00587100       0.00036000      -0.00175100
O        1.54820000       3.90443000      14.53006000       0.00445200       0.00283300      -0.00254200
O        0.67600000       3.88226000      19.95359000      -0.00134300       0.00244100       0.00779200
O        4.76539000       4.15661000       9.94287000       0.00206100       0.00282300      -0.00264800
O        4.35876000       3.60418000      12.73535000      -0.01217200       0.01126100       0.00001300
O        1.99305000       3.89388000      11.71896000       0.00929700      -0.00705100       0.00485700
O        4.33248000       1.63954000      16.69408000      -0.00489600      -0.00245800       0.00081200
O        4.73144000       1.01061000      14.03660000       0.00105800       0.00497000      -0.00362900
O        3.92040000       4.23474000      15.47188000      -0.00112300      -0.00566100      -0.00132700
O        3.91343000       0.96038000      19.35584000       0.00188800       0.00030500       0.00501200
O        1.11240000       3.93322000      17.25889000       0.00211200      -0.00899700      -0.00061000
O        1.56031000       1.27341000      17.58871000       0.00368900       0.00331400      -0.00271700
O        1.96636000       1.35611000      14.93593000      -0.00105800      -0.00858400      -0.00863000
O        3.48005000       3.56847000      18.17798000      -0.00413600      -0.00167500       0.00364900
Zr       2.51523000       2.41504000      34.76357000      -0.00435700       0.00303400       0.01038200
Zr       0.11044000       2.81782000      32.34271000       0.00503500       0.00356800       0.00382700
Zr       4.92956000       4.97397000      34.97524000      -0.00032900      -0.00768100       0.01020000
Zr       2.95836000       0.22269000      31.98688000      -0.00255000       0.00721100       0.00389200
Zr       0.83409000       2.38718000      13.21854000      -0.00503500      -0.00356800      -0.00382700
Zr       3.57530000       2.78996000      10.79768000       0.00435700      -0.00303400      -0.01038200
Zr       3.13217000       4.98231000      13.57436000       0.00255000      -0.00721100      -0.00389200
Zr       4.71528000       0.22799000      21.23753000       0.00203400      -0.00389200      -0.01141700
Zr       2.24697000       4.98795000      18.97236000       0.00434200      -0.01202600      -0.01667200
Zr       2.68447000       2.83380000      16.28647000       0.00559800       0.00512900      -0.00068300
Zr       3.40606000       2.37120000      29.27477000      -0.00559800      -0.00512900       0.00068300
Zr       0.94433000       2.82312000      26.99628000       0.00858800      -0.00271000       0.01171500
Zr       0.51755000       4.96538000      29.67136000      -0.00006800       0.00497400       0.00867200
Zr       3.84357000       0.21705000      26.58888000      -0.00434200       0.01202600       0.01667200
Zr       0.00020000       2.38188000      18.56496000      -0.00858800       0.00271000      -0.01171500
Zr       4.27793000       2.37473000      23.91160000       0.00862400      -0.00354400       0.00447900
Zr       1.81260000       2.83027000      21.64965000      -0.00862400       0.00354400      -0.00447900
Zr       1.37525000       4.97701000      24.32371000      -0.00203400       0.00389200       0.01141700
Zr       0.42698000       0.23962000      15.88988000       0.00006800      -0.00497400      -0.00867200
Zr       1.16098000       0.23103000      10.58600000       0.00032900       0.00768100      -0.01020000
