60
Lattice="5.146 0.0 0.0 0.0 5.205 0.0 0.0 0.0 45.561243" Properties=species:S:1:pos:R:3:forces:R:3 energy=-571.38248222 stress="3.57434 -16.3856 -0.18917 -16.3856 0.96546 0.18338 -0.18917 0.18338 -0.52452" pbc="T T T"
O        2.60500000       3.54852000      23.53981000       0.00214100      -0.00056200      -0.00243600
O        3.03932000       4.25873000      20.86185000      -0.00049500      -0.00188100       0.00419100
O        3.05121000       0.94627000      24.69940000       0.00049500       0.00188100      -0.00419100
O        0.24086000       3.93469000      22.63343000      -0.00066300      -0.00291700       0.00211000
O        0.70367000       1.27031000      22.92781000       0.00066300       0.00291700      -0.00211000
O        1.13530000       1.33630000      20.25261000       0.00033700      -0.00206400       0.00584000
O        4.95523000       3.86870000      25.30864000      -0.00033700       0.00206400      -0.00584000
O        2.61258000       1.64118000      27.38726000      -0.00330800      -0.00239100      -0.00430700
O        1.75960000       3.57061000      28.87162000       0.00076000       0.00074800      -0.00410200
O        2.17731000       4.24821000      26.20877000       0.00063700       0.00317000      -0.00716000
O        4.54195000       1.30432000      31.03809000       0.00280100      -0.00369200      -0.00009800
O        2.17041000       0.97527000      30.09663000      -0.00519500       0.00033000      -0.00136200
O        4.97912000       1.27647000      28.30881000       0.00028700       0.00286400      -0.00663700
O        0.26912000       1.32598000      25.61103000       0.00213000      -0.00261200      -0.00757200
O        4.12517000       3.85363000      30.63207000       0.00006900      -0.00024400      -0.00831100
O        1.72938000       1.59967000      32.83398000      -0.00260600      -0.00147800      -0.00079700
O        1.04642000       3.68667000      34.19580000      -0.00462900      -0.00073000       0.00294400
O        1.36061000       4.19592000      31.53100000      -0.00100000       0.00083800      -0.00418700
O        1.31842000       1.04607000      35.62731000       0.00253600       0.00218700       0.00030400
O        3.78801000       3.97749000      33.25992000       0.00152000       0.00620500      -0.00321000
O        4.09111000       1.30876000      33.84966000       0.00520000      -0.00292800       0.00417200
O        4.53101000       3.93564000      27.97714000       0.00067700       0.00310900      -0.00851900
O        3.48553000       1.65648000      22.02143000      -0.00214100       0.00056200       0.00243600
O        3.67769000       3.70196000      35.89438000      -0.00570300       0.00081700       0.00480800
O       -0.10189000       1.51833000      11.36545000       0.00462900       0.00073000      -0.00294400
O        2.30252000       1.22751000      12.30132000      -0.00152000      -0.00620500       0.00321000
O        2.41284000       1.50304000       9.66686000       0.00570300      -0.00081700      -0.00480800
O        1.54858000       3.90068000      14.52315000      -0.00280100       0.00369200       0.00009800
O        0.67541000       3.87902000      19.95021000      -0.00213000       0.00261200       0.00757200
O        4.77211000       4.15893000       9.93394000      -0.00253600      -0.00218700      -0.00030400
O        4.36115000       3.60533000      12.72726000       0.00260600       0.00147800       0.00079700
O        1.99943000       3.89624000      11.71158000      -0.00520000       0.00292800      -0.00417200
O        4.33093000       1.63439000      16.68962000      -0.00076000      -0.00074800       0.00410200
O        4.72992000       1.00908000      14.03024000       0.00100000      -0.00083800       0.00418700
O        3.92012000       4.22973000      15.46461000       0.00519500      -0.00033000       0.00136200
O        3.91322000       0.95679000      19.35247000      -0.00063700      -0.00317000       0.00716000
O        1.11142000       3.92853000      17.25243000      -0.00028700      -0.00286400       0.00663700
O        1.55952000       1.26936000      17.58411000      -0.00067700      -0.00310900       0.00851900
O        1.96536000       1.35137000      14.92917000      -0.00006900       0.00024400       0.00831100
O        3.47795000       3.56382000      18.17399000       0.00330800       0.00239100       0.00430700
Zr       2.50988000       2.41174000      34.77279000       0.00067900      -0.00355600      -0.00207600
Zr       0.11180000       2.82079000      32.34898000      -0.00324800      -0.00284900       0.00695900
Zr       4.92415000       4.97107000      34.98282000      -0.00059700       0.00144600       0.00324100
Zr       2.95977000       0.22503000      31.99442000      -0.00177200       0.00325800       0.01124000
Zr       0.83273000       2.38421000      13.21226000       0.00324800       0.00284900      -0.00695900
Zr       3.58065000       2.79326000      10.78846000      -0.00067900       0.00355600       0.00207600
Zr       3.13076000       4.97997000      13.56683000       0.00177200      -0.00325800      -0.01124000
Zr       4.71445000       0.22681000      21.23609000      -0.00314300       0.00153700      -0.01276800
Zr       2.24623000       4.98398000      18.96890000       0.00417500       0.00199500      -0.01903700
Zr       2.68421000       2.82994000      16.28073000      -0.00011700      -0.00531300      -0.01019900
Zr       3.40632000       2.37506000      29.28051000       0.00011700       0.00531300       0.01019900
Zr       0.94531000       2.82660000      27.00032000       0.00012000       0.00530000       0.01640400
Zr       0.51847000       4.96957000      29.67747000       0.00061800       0.00056700       0.00948700
Zr       3.84430000       0.22102000      26.59235000      -0.00417500      -0.00199500       0.01903700
Zr      -0.00078000       2.37840000      18.56092000      -0.00012000      -0.00530000      -0.01640400
Zr       4.27912000       2.37609000      23.91236000      -0.00355100       0.00147800       0.00806800
Zr       1.81141000       2.82891000      21.64888000       0.00355100      -0.00147800      -0.00806800
Zr       1.37608000       4.97819000      24.32515000       0.00314300      -0.00153700       0.01276800
Zr       0.42606000       0.23543000      15.88377000      -0.00061800      -0.00056700      -0.00948700
Zr       1.16638000       0.23393000      10.57842000       0.00059700      -0.00144600      -0.00324100
