60
Lattice="5.146 0.0 0.0 0.0 5.205 0.0 0.0 0.0 45.561243" Properties=species:S:1:pos:R:3:forces:R:3 energy=-571.38254765 stress="3.55295 -16.38522 -0.1905 -16.38522 0.94947 0.18144 -0.1905 0.18144 -0.58069" pbc="T T T"
O        2.60503000       3.54851000      23.53982000       0.00143400      -0.00043700      -0.00195800
O        3.03912000       4.25869000      20.86182000       0.00053000      -0.00076000       0.00192400
O        3.05141000       0.94631000      24.69942000      -0.00053000       0.00076000      -0.00192400
O        0.24084000       3.93467000      22.63355000      -0.00031600      -0.00272600       0.00018500
O        0.70369000       1.27033000      22.92770000       0.00031600       0.00272600      -0.00018500
O        1.13522000       1.33605000      20.25232000       0.00086100      -0.00063900       0.00642400
O        4.95531000       3.86895000      25.30893000      -0.00086100       0.00063900      -0.00642400
O        2.61246000       1.64129000      27.38745000      -0.00438700       0.00062700      -0.00089600
O        1.75974000       3.57114000      28.87176000       0.00090200      -0.00017400      -0.00373500
O        2.17734000       4.24836000      26.20887000       0.00221500       0.00354200      -0.00626100
O        4.54199000       1.30424000      31.03854000       0.00171600      -0.00132000       0.00246500
O        2.17026000       0.97572000      30.09710000      -0.00498400      -0.00165200       0.00004200
O        4.97901000       1.27689000      28.30906000       0.00003700       0.00042700      -0.00289600
O        0.26924000       1.32611000      25.61133000       0.00117300      -0.00143800      -0.00684200
O        4.12530000       3.85393000      30.63224000      -0.00254100      -0.00293500      -0.00456800
O        1.72921000       1.59970000      32.83459000      -0.00087600      -0.00366000      -0.00505600
O        1.04598000       3.68646000      34.19646000      -0.00287100      -0.00063900       0.00013800
O        1.36071000       4.19561000      31.53131000       0.00139400       0.00420200      -0.00425100
O        1.31842000       1.04615000      35.62750000      -0.00094200      -0.00254800       0.00197900
O        3.78808000       3.97759000      33.26042000      -0.00107400       0.00771900      -0.00517400
O        4.09112000       1.30885000      33.85046000       0.00484100      -0.00464700       0.00018400
O        4.53108000       3.93598000      27.97726000      -0.00008400       0.00195800      -0.00484100
O        3.48550000       1.65649000      22.02142000      -0.00143400       0.00043700       0.00195800
O        3.67690000       3.70202000      35.89508000      -0.00362700       0.00119700       0.00090700
O       -0.10145000       1.51854000      11.36478000       0.00287100       0.00063900      -0.00013800
O        2.30245000       1.22741000      12.30082000       0.00107400      -0.00771900       0.00517400
O        2.41364000       1.50298000       9.66616000       0.00362700      -0.00119700      -0.00090700
O        1.54854000       3.90076000      14.52270000      -0.00171600       0.00132000      -0.00246500
O        0.67529000       3.87889000      19.94992000      -0.00117300       0.00143800       0.00684200
O        4.77211000       4.15885000       9.93374000       0.00094200       0.00254800      -0.00197900
O        4.36132000       3.60530000      12.72666000       0.00087600       0.00366000       0.00505600
O        1.99941000       3.89615000      11.71079000      -0.00484100       0.00464700      -0.00018400
O        4.33079000       1.63386000      16.68949000      -0.00090200       0.00017400       0.00373500
O        4.72982000       1.00939000      14.02993000      -0.00139400      -0.00420200       0.00425100
O        3.92028000       4.22928000      15.46415000       0.00498400       0.00165200      -0.00004200
O        3.91319000       0.95664000      19.35237000      -0.00221500      -0.00354200       0.00626100
O        1.11152000       3.92811000      17.25219000      -0.00003700      -0.00042700       0.00289600
O        1.55945000       1.26902000      17.58398000       0.00008400      -0.00195800       0.00484100
O        1.96523000       1.35107000      14.92901000       0.00254100       0.00293500       0.00456800
O        3.47807000       3.56371000      18.17380000       0.00438700      -0.00062700       0.00089600
Zr       2.50968000       2.41127000      34.77306000      -0.00166000       0.00203000       0.00155800
Zr       0.11159000       2.82106000      32.34937000       0.00189500      -0.00692600       0.00748300
Zr       4.92368000       4.97075000      34.98334000       0.00012600       0.00083400       0.00704300
Zr       2.95982000       0.22512000      31.99495000      -0.00683900       0.00616100       0.00774500
Zr       0.83294000       2.38394000      13.21187000      -0.00189500       0.00692600      -0.00748300
Zr       3.58085000       2.79373000      10.78819000       0.00166000      -0.00203000      -0.00155800
Zr       3.13071000       4.97988000      13.56629000       0.00683900      -0.00616100      -0.00774500
Zr       4.71436000       0.22679000      21.23600000      -0.00375600      -0.00017100      -0.00876500
Zr       2.24644000       4.98368000      18.96837000       0.00023300      -0.00001600      -0.01057700
Zr       2.68424000       2.82951000      16.28039000       0.00235000      -0.00038000      -0.00652000
Zr       3.40629000       2.37549000      29.28086000      -0.00235000       0.00038000       0.00652000
Zr       0.94535000       2.82705000      27.00044000      -0.00143600       0.00152600       0.01359300
Zr       0.51827000       4.96967000      29.67783000       0.00551900       0.00663100       0.00564000
Zr       3.84409000       0.22132000      26.59287000      -0.00023300       0.00001600       0.01057700
Zr      -0.00081000       2.37795000      18.56081000       0.00143600      -0.00152600      -0.01359300
Zr       4.27927000       2.37628000      23.91266000      -0.00473500       0.00066900       0.00316100
Zr       1.81126000       2.82872000      21.64859000       0.00473500      -0.00066900      -0.00316100
Zr       1.37617000       4.97821000      24.32524000       0.00375600       0.00017100       0.00876500
Zr       0.42626000       0.23534000      15.88341000      -0.00551900      -0.00663100      -0.00564000
Zr       1.16685000       0.23425000      10.57791000      -0.00012600      -0.00083400      -0.00704300
