60
Lattice="5.146 0.0 0.0 0.840294 7.390122 0.0 0.0 0.0 38.41044" Properties=species:S:1:pos:R:3:forces:R:3 energy=-558.36072008 stress="66.12649 -3.44375 -12.90572 -3.44375 22.25731 10.66287 -12.90572 10.66287 29.54805" pbc="T T T"
O        4.24606000       3.56670000      18.62760000      -0.41747900       0.44473900      -0.60574700
O        4.66628000       6.06077000      17.41788000      -0.40441100       0.50417300      -0.39910600
O        4.78543000       4.87900000      20.99256000       0.40441100      -0.50417300       0.39910600
O        2.02533000       4.74107000      18.13591000      -1.28178200      -0.13212500       1.09309900
O        2.28038000       6.19870000      20.27453000       1.28178200       0.13212500      -1.09309900
O        1.86027000       0.71145000      18.46850000       1.28800900       1.11421900      -0.08386300
O        1.60514000       2.83820000      19.94194000      -1.28800900      -1.11421900       0.08386300
O        4.36842000       3.64605000      23.47546000       0.27026100      -0.20294300       0.59118200
O        4.24294000       7.23564000      22.32578000      -0.33382100       0.32900300      -0.64215500
O        3.82549000       2.33672000      21.11249000      -0.44138700       0.55192000      -0.44752600
O        1.08142000       0.66421000      25.97290000      -0.92758200      -0.03413200      -4.81431000
O        3.95276000       1.15136000      24.68669000       0.82130700      -0.99932700       0.72116900
O        1.44000000       2.46598000      23.97197000       1.21205500      -0.05223200      -0.98134800
O        1.85864000       4.37729000      22.15987000       1.35465400       1.19630300      -0.02204600
O        1.60611000       6.50941000      23.63830000      -1.36917600      -1.03365300       0.58651100
O        3.40572000       0.05234000      27.19605000       6.15879400      -1.20321100      -1.82608800
O        3.40592000       3.46828000      26.00390000      -1.04589400       0.98486000       0.05772700
O        3.82654000       6.00835000      24.80730000      -0.07998600       0.60915900       0.11606400
O        3.89400000       4.88204000      28.41412000      -0.69193200      -0.79940600       0.66322100
O        1.18187000       4.68456000      25.50531000      -1.63190800       0.19068300       1.01738700
O        1.48573000       6.17353000      27.65164000       0.19655600       1.57677100      -0.36823200
O        1.18560000       1.01652000      21.83163000      -1.28141600      -0.18971800       1.04226700
O        5.20565000       7.37306000      19.78284000       0.41747900      -0.44473900       0.60574700
O        0.85170000       2.68337000      27.37104000       1.48970100      -0.52024700       0.96394700
O        0.05949000       0.08136000      12.40654000       1.04589400      -0.98486000      -0.05772700
O        3.12383000       6.25521000      12.90513000       1.63190800      -0.19068300      -1.01738700
O        2.61371000       0.86627000      11.03940000      -1.48970100       0.52024700      -0.96394700
O        2.38399000       2.88544000      12.43755000       0.92758200       0.03413200       4.81431000
O        2.44706000       6.56248000      16.25057000      -1.35465400      -1.19630300       0.02204600
O        5.55771000       6.05773000       9.99632000       0.69193200       0.79940600      -0.66322100
O        5.20570000       3.49731000      11.21439000      -6.15879400       1.20321100       1.82608800
O        2.81998000       4.76624000      10.75880000      -0.19655600      -1.57677100       0.36823200
O        5.20877000       3.70413000      16.08466000       0.33382100      -0.32900300       0.64215500
O        5.62517000       4.93142000      13.60314000       0.07998600      -0.60915900      -0.11606400
O        4.65865000       2.39828000      13.72375000      -0.82130700       0.99932700      -0.72116900
O        4.78592000       1.21293000      17.29795000       0.44138700      -0.55192000       0.44752600
O        2.02541000       1.08367000      14.43847000      -1.21205500       0.05223200       0.98134800
O        2.27981000       2.53313000      16.57881000       1.28141600       0.18971800      -1.04226700
O        2.69959000       4.43036000      14.77214000       1.36917600       1.03365300      -0.58651100
O        5.08329000       7.29372000      14.93499000      -0.27026100       0.20294300      -0.59118200
Zr       5.11048000       2.75725000      25.35407000       1.01373800      -1.09317300       2.17219700
Zr       1.84624000       0.57893000      27.63925000      -6.29686200       1.35920100       4.36887000
Zr       2.31242000       4.34019000      27.65651000      -0.13565400       0.18032400      -1.29413100
Zr       5.52827000       6.62835000      25.64818000       0.39311900      -0.25419300       1.41811800
Zr       1.61917000       2.97071000      10.77119000       6.29686200      -1.35920100      -4.36887000
Zr       3.50093000       0.79240000      13.05638000      -1.01373800       1.09317300      -2.17219700
Zr       3.92344000       4.31142000      12.76226000      -0.39311900       0.25419300      -1.41811800
Zr       1.23452000       6.74439000      18.20916000       0.16747700      -1.04225800       0.83152000
Zr       3.07251000       0.52691000      16.50462000      -0.16804100       1.17551000      -1.06172500
Zr       3.49089000       4.49511000      16.77737000      -0.17358600       0.88172300      -1.02555200
Zr       0.81481000       6.44466000      21.63307000       0.17358600      -0.88172300       1.02555200
Zr       2.64722000       4.43448000      24.18263000      -0.00318800       0.18607900      -1.44200200
Zr       2.24288000       0.46365000      23.87914000       0.11630000       1.61771300      -0.92792800
Zr       0.39291000       3.02274000      21.90582000       0.16804100      -1.17551000       1.06172500
Zr       1.65849000       6.50529000      14.22781000       0.00318800      -0.18607900       1.44200200
Zr       0.81403000       2.77957000      17.93930000       0.20130600      -0.95549400       1.13000300
Zr       2.65138000       0.77007000      20.47114000      -0.20130600       0.95549400      -1.13000300
Zr       3.07119000       4.19538000      20.20128000      -0.16747700       1.04225800      -0.83152000
Zr       1.22253000       3.08599000      14.53130000      -0.11630000      -1.61771300       0.92792800
Zr       1.99328000       6.59958000      10.75394000       0.13565400      -0.18032400       1.29413100
