60
Lattice="5.146 0.0 0.0 0.840294 7.390122 0.0 0.0 0.0 38.41044" Properties=species:S:1:pos:R:3:forces:R:3 energy=-558.68742005 stress="51.42713 -3.36871 -11.42626 -3.36871 21.34235 10.52453 -11.42626 10.52453 28.1526" pbc="T T T"
O        4.23587000       3.57004000      18.64519000      -0.17402100       0.33650600      -0.87459700
O        4.65608000       6.04330000      17.41441000      -0.16209000       0.78289900      -0.29490700
O        4.79562000       4.89647000      20.99603000       0.16209000      -0.78289900       0.29490700
O        2.02348000       4.76461000      18.14223000      -1.11900800      -0.46666700       0.81223400
O        2.28223000       6.17516000      20.26821000       1.11900800       0.46666700      -0.81223400
O        1.86211000       0.71756000      18.49203000       1.12334900       0.83295600      -0.42532200
O        1.60330000       2.83209000      19.91841000      -1.12334900      -0.83295600       0.42532200
O        4.37822000       3.64307000      23.45815000       0.06317700      -0.13748200       0.86053200
O        4.23314000       7.23861000      22.34297000      -0.10262000       0.23889500      -0.91798000
O        3.81536000       2.31924000      21.10906000      -0.19779700       0.82531700      -0.33583500
O        1.07565000       0.66896000      25.98223000      -0.67423200      -0.15524800      -4.30813000
O        3.96201000       1.16926000      24.69026000       0.57875300      -1.19862700       0.57274000
O        1.44186000       2.44350000      23.96534000       1.05958400       0.27675800      -0.70712500
O        1.86069000       4.38342000      22.18384000       1.18501000       0.90083300      -0.35952800
O        1.60415000       6.50265000      23.61460000      -1.18716800      -0.76275800       0.84468200
O        3.43069000       0.03320000      27.17557000       3.68352100      -0.31959200      -1.02374800
O        3.39572000       3.47661000      26.02318000      -0.69630900       0.70481900      -0.31431900
O        3.81628000       5.99018000      24.80389000       0.12997300       0.91470300       0.15060700
O        3.91053000       4.89192000      28.41366000      -1.40352300      -1.08810100       0.38119400
O        1.18041000       4.70789000      25.51417000      -1.40477700      -0.21675400       0.67160600
O        1.48192000       6.14590000      27.64691000       0.33771700       2.16160900      -0.29415000
O        1.18368000       1.04011000      21.83785000      -1.11669900      -0.51479800       0.76460000
O        5.21583000       7.36973000      19.76525000       0.17402100      -0.33650600       0.87459700
O        0.83910000       2.68924000      27.34266000       1.51453600      -0.65584400       1.24737400
O        0.06969000       0.07304000      12.38726000       0.69630900      -0.70481900       0.31431900
O        3.12529000       6.23188000      12.89627000       1.40477700       0.21675400      -0.67160600
O        2.62632000       0.86041000      11.06778000      -1.51453600       0.65584400      -1.24737400
O        2.38976000       2.88068000      12.42821000       0.67423200       0.15524800       4.30813000
O        2.44502000       6.55635000      16.22660000      -1.18501000      -0.90083300       0.35952800
O        5.54118000       6.04785000       9.99678000       1.40352300       1.08810100      -0.38119400
O        5.18073000       3.51645000      11.23487000      -3.68352100       0.31959200       1.02374800
O        2.82378000       4.79387000      10.76353000      -0.33771700      -2.16160900       0.29415000
O        5.21856000       3.70116000      16.06747000       0.10262000      -0.23889500       0.91798000
O        5.63543000       4.94959000      13.60655000      -0.12997300      -0.91470300      -0.15060700
O        4.64941000       2.38039000      13.72018000      -0.57875300       1.19862700      -0.57274000
O        4.79605000       1.23040000      17.30138000       0.19779700      -0.82531700       0.33583500
O        2.02355000       1.10614000      14.44510000      -1.05958400      -0.27675800       0.70712500
O        2.28173000       2.50954000      16.57259000       1.11669900       0.51479800      -0.76460000
O        2.70156000       4.43712000      14.79584000       1.18716800       0.76275800      -0.84468200
O        5.07349000       7.29670000      14.95229000      -0.06317700       0.13748200      -0.86053200
Zr       5.11091000       2.74738000      25.35909000       0.77698100      -0.78368900       1.97484900
Zr       1.84261000       0.60084000      27.65863000      -4.29870200       0.15062000       2.96580400
Zr       2.30308000       4.32328000      27.64288000       0.67675400       0.71772000      -0.79865100
Zr       5.52899000       6.62728000      25.64762000       0.19918800      -0.31539300       1.42291200
Zr       1.62281000       2.94881000      10.75181000       4.29870200      -0.15062000      -2.96580400
Zr       3.50050000       0.80227000      13.05135000      -0.77698100       0.78368900      -1.97484900
Zr       3.92272000       4.31248000      12.76282000      -0.19918800       0.31539300      -1.42291200
Zr       1.23376000       6.73615000      18.21469000       0.15181100      -0.83751300       0.68930000
Zr       3.07310000       0.53546000      16.49930000      -0.15628900       0.95258200      -0.88608600
Zr       3.49171000       4.50043000      16.76912000      -0.16377800       0.73868800      -0.82580300
Zr       0.81400000       6.43934000      21.64132000       0.16377800      -0.73868800       0.82580300
Zr       2.64845000       4.44011000      24.17247000      -0.04625300       0.11706500      -1.13123200
Zr       2.24216000       0.47283000      23.87573000       0.12263700       1.31510900      -0.80506700
Zr       0.39231000       3.01419000      21.91114000       0.15628900      -0.95258200       0.88608600
Zr       1.65725000       6.49966000      14.23797000       0.04625300      -0.11706500       1.13123200
Zr       0.81331000       2.77414000      17.94741000       0.18141500      -0.79693300       0.91612400
Zr       2.65210000       0.77550000      20.46303000      -0.18141500       0.79693300      -0.91612400
Zr       3.07195000       4.20362000      20.19575000      -0.15181100       0.83751300      -0.68930000
Zr       1.22326000       3.07682000      14.53471000      -0.12263700      -1.31510900       0.80506700
Zr       2.00262000       6.61649000      10.76756000      -0.67675400      -0.71772000       0.79865100
