60
Lattice="5.146 0.0 0.0 0.840294 7.390122 0.0 0.0 0.0 38.41044" Properties=species:S:1:pos:R:3:forces:R:3 energy=-564.4882138 stress="3.1141 3.51345 -1.00094 3.51345 17.63016 0.29575 -1.00094 0.29575 9.70221" pbc="T T T"
O        4.23003000       3.59840000      18.53790000      -0.40873800       0.20554900       0.24385000
O        4.65099000       6.14891000      17.38789000      -0.44967900      -0.19248200      -0.30518400
O        4.80072000       4.79086000      21.02255000       0.44967900       0.19248200       0.30518400
O        1.92859000       4.66640000      18.20847000      -0.13000300      -0.00622400       0.20399100
O        2.37712000       6.27337000      20.20197000       0.13000300       0.00622400      -0.20399100
O        1.95681000       0.78462000      18.39404000       0.14142500       0.23500000      -0.07184000
O        1.50860000       2.76503000      20.01640000      -0.14142500      -0.23500000       0.07184000
O        4.38191000       3.62270000      23.57785000       0.48694200      -0.37442900       0.02207300
O        4.23273000       7.26138000      22.22721000      -0.37312600       0.18228000       0.19928800
O        3.81069000       2.42638000      21.08303000      -0.38467600      -0.23477000      -0.16051300
O        1.09015000       0.67547000      25.72129000       0.27443400       0.59315400       0.34266000
O        4.00260000       1.05526000      24.73394000       0.02463100       0.62404300      -0.21156600
O        1.52163000       2.53799000      23.92003000       0.20130300       0.13946800      -0.21270500
O        1.95763000       4.44962000      22.09430000       0.10396300       0.14784500      -0.05507300
O        1.51497000       6.44268000      23.73332000      -0.02088400      -0.44099100      -0.41417200
O        3.49375000       0.12690000      27.23856000      -0.56385600       0.59451700       0.06535100
O        3.36070000       3.52529000      25.97983000       0.47611700      -0.00527500      -0.32792200
O        3.82023000       6.08802000      24.81231000      -0.98644800      -0.40976700      -0.55561600
O        3.85825000       4.80115000      28.52428000      -2.67058600      -1.06945000      -1.36486700
O        1.06179000       4.61973000      25.58175000      -0.14813000      -0.04148100       0.31537000
O        1.52335000       6.37197000      27.66351000      -1.41697100      -2.60219800      -0.47439300
O        1.09039000       0.94229000      21.89752000      -0.08871400       0.04256400       0.26957800
O        5.22168000       7.34137000      19.87255000       0.40873800      -0.20554900      -0.24385000
O        1.01988000       2.57976000      27.55160000       0.23298000       0.00798400      -0.23086700
O        0.10471000       0.02435000      12.43061000      -0.47611700       0.00527500       0.32792200
O        3.24392000       6.32004000      12.82869000       0.14813000       0.04148100      -0.31537000
O        2.44553000       0.96989000      10.85884000      -0.23298000      -0.00798400       0.23086700
O        2.37526000       2.87417000      12.68915000      -0.27443400      -0.59315400      -0.34266000
O        2.34807000       6.49015000      16.31614000      -0.10396300      -0.14784500       0.05507300
O        5.59346000       6.13861000       9.88616000       2.67058600       1.06945000       1.36486700
O        5.11766000       3.42275000      11.17188000       0.56385600      -0.59451700      -0.06535100
O        2.78236000       4.56779000      10.74693000       1.41697100       2.60219800       0.47439300
O        5.21898000       3.67839000      16.18323000       0.37312600      -0.18228000      -0.19928800
O        5.63148000       4.85175000      13.59813000       0.98644800       0.40976700       0.55561600
O        4.60881000       2.49439000      13.67651000      -0.02463100      -0.62404300       0.21156600
O        4.80073000       1.12327000      17.32741000       0.38467600       0.23477000       0.16051300
O        1.94378000       1.01166000      14.49041000      -0.20130300      -0.13946800       0.21270500
O        2.37502000       2.60736000      16.51292000       0.08871400      -0.04256400      -0.26957800
O        2.79073000       4.49708000      14.67712000       0.02088400       0.44099100       0.41417200
O        5.06980000       7.31707000      14.83259000      -0.48694200       0.37442900      -0.02207300
Zr       5.17453000       2.67632000      25.48011000      -0.63620900      -0.34987300       0.16879200
Zr       1.64040000       0.56907000      27.66572000       3.24563000       2.35816300      -0.12668400
Zr       2.26672000       4.36588000      27.50297000       2.37337100       0.15906700       2.18844400
Zr       5.51215000       6.61231000      25.71505000      -0.94816200       0.72214700       0.68030400
Zr       1.82501000       2.98058000      10.74472000      -3.24563000      -2.35816300       0.12668400
Zr       3.43688000       0.87332000      12.93033000       0.63620900       0.34987300      -0.16879200
Zr       3.93956000       4.32746000      12.69539000       0.94816200      -0.72214700      -0.68030400
Zr       1.24681000       6.68597000      18.27440000      -0.29492000       0.19307100       0.31624200
Zr       3.06032000       0.59293000      16.42960000       0.35575200      -0.24716700      -0.27475400
Zr       3.47296000       4.55960000      16.70784000       0.10862200       0.23191800       0.10513100
Zr       0.83275000       6.38017000      21.70260000      -0.10862200      -0.23191800      -0.10513100
Zr       2.63982000       4.47852000      24.09704000       0.15786400       0.50964700       0.65959600
Zr       2.25510000       0.53343000      23.81011000       0.17858700      -0.32606000       0.26581200
Zr       0.40510000       2.95672000      21.98084000      -0.35575200       0.24716700       0.27475400
Zr       1.66589000       6.46125000      14.31340000      -0.15786400      -0.50964700      -0.65959600
Zr       0.82919000       2.71197000      18.00192000      -0.27182800      -0.14966600      -0.14874400
Zr       2.63622000       0.83767000      20.40852000       0.27182800       0.14966600       0.14874400
Zr       3.05889000       4.25380000      20.13604000       0.29492000      -0.19307100      -0.31624200
Zr       1.21031000       3.01622000      14.60033000      -0.17858700       0.32606000      -0.26581200
Zr       2.03898000       6.57389000      10.90747000      -2.37337100      -0.15906700      -2.18844400
