60
Lattice="5.146 0.0 0.0 0.840294 7.390122 0.0 0.0 0.0 38.41044" Properties=species:S:1:pos:R:3:forces:R:3 energy=-565.58647263 stress="18.38468 -2.00307 2.25562 -2.00307 11.28007 3.83731 2.25562 3.83731 13.51015" pbc="T T T"
O        4.21005000       3.61137000      18.53888000      -0.03998800       0.02725900       0.03693600
O        4.62968000       6.15074000      17.37157000      -0.06295500      -0.09147300      -0.11843900
O        4.82202000       4.78902000      21.03887000       0.06295500       0.09147300       0.11843900
O        1.91113000       4.66064000      18.22813000      -0.05186300      -0.00945300      -0.05217100
O        2.39457000       6.27913000      20.18231000       0.05186300       0.00945300       0.05217100
O        1.97462000       0.80509000      18.38552000       0.03532800      -0.01318200      -0.00670400
O        1.49079000       2.74455000      20.02492000      -0.03532800       0.01318200       0.00670400
O        4.40561000       3.60376000      23.58988000      -0.02728600      -0.12711700       0.17573400
O        4.21465000       7.27330000      22.22433000      -0.06602500       0.00252500       0.26913800
O        3.79228000       2.42662000      21.07215000      -0.06746600      -0.09838000      -0.02230200
O        1.10960000       0.70350000      25.72550000      -0.02768800       0.14050800       0.07642100
O        4.01471000       1.07178000      24.73514000      -0.19590900       0.05051800      -0.03829400
O        1.53765000       2.55082000      23.90473000       0.19441600      -0.15034900       0.10625800
O        1.97404000       4.46587000      22.08878000       0.08749200      -0.00936100       0.03280400
O        1.50394000       6.41656000      23.72604000      -0.11881300      -0.02432700       0.05408500
O        3.45459000       0.16663000      27.26188000       2.37781500      -0.02673100      -0.63677000
O        3.36855000       3.53653000      25.97744000       0.69791400      -0.27150100      -0.36550900
O        3.77947000       6.07693000      24.79211000      -0.01639400       0.28449600       0.11178800
O        3.77874000       4.75781000      28.50642000       0.33578900      -0.26889800       0.57794900
O        1.04245000       4.61148000      25.61108000      -0.22776400       0.23822100      -0.19501200
O        1.48887000       6.31366000      27.65452000       0.11913000       0.42524500      -0.62500200
O        1.07440000       0.93923000      21.91780000       0.03549700      -0.05482600       0.13970900
O        5.24166000       7.32840000      19.87156000       0.03998800      -0.02725900      -0.03693600
O        1.05327000       2.55551000      27.56917000       0.15672400       0.39813800      -0.06532200
O        0.09686000       0.01311000      12.43300000      -0.69791400       0.27150100       0.36550900
O        3.26325000       6.32829000      12.79936000       0.22776400      -0.23822100       0.19501200
O        2.41215000       0.99413000      10.84127000      -0.15672400      -0.39813800       0.06532200
O        2.35582000       2.84615000      12.68494000       0.02768800      -0.14050800      -0.07642100
O        2.33166000       6.47390000      16.32166000      -0.08749200       0.00936100      -0.03280400
O        5.67297000       6.18196000       9.90402000      -0.33578900       0.26889800      -0.57794900
O        5.15682000       3.38302000      11.14856000      -2.37781500       0.02673100       0.63677000
O        2.81684000       4.62611000      10.75592000      -0.11913000      -0.42524500       0.62500200
O        5.23706000       3.66647000      16.18612000       0.06602500      -0.00252500      -0.26913800
O        5.67224000       4.86284000      13.61834000       0.01639400      -0.28449600      -0.11178800
O        4.59670000       2.47786000      13.67530000       0.19590900      -0.05051800       0.03829400
O        4.81913000       1.12303000      17.33829000       0.06746600       0.09838000       0.02230200
O        1.92776000       0.99883000      14.50571000      -0.19441600       0.15034900      -0.10625800
O        2.39101000       2.61042000      16.49264000      -0.03549700       0.05482600      -0.13970900
O        2.80177000       4.52321000      14.68440000       0.11881300       0.02432700      -0.05408500
O        5.04609000       7.33601000      14.82056000       0.02728600       0.12711700      -0.17573400
Zr       5.16267000       2.64656000      25.49770000       0.01630300       0.81316500      -0.37805100
Zr       1.73917000       0.64396000      27.63002000      -1.95401500      -0.54549900       0.87854100
Zr       2.32397000       4.36442000      27.52820000      -1.00052200      -0.02035400       0.36380800
Zr       5.47435000       6.63496000      25.73432000       0.37558200      -0.31448400       0.62622600
Zr       1.72624000       2.90568000      10.78042000       1.95401500       0.54549900      -0.87854100
Zr       3.44874000       0.90309000      12.91274000      -0.01630300      -0.81316500       0.37805100
Zr       3.97735000       4.30481000      12.67612000      -0.37558200       0.31448400      -0.62622600
Zr       1.23967000       6.68260000      18.29799000      -0.05221000       0.26269800      -0.10885800
Zr       3.06943000       0.59523000      16.40771000       0.06942000      -0.29818800      -0.05030100
Zr       3.47225000       4.57935000      16.69774000      -0.04114100      -0.02695600       0.44991900
Zr       0.83345000       6.36042000      21.71270000       0.04114100       0.02695600      -0.44991900
Zr       2.64206000       4.51154000      24.10397000      -0.37914500      -0.49443800       0.48256000
Zr       2.26132000       0.52812000      23.80715000      -0.38165800       0.07348400      -0.26566200
Zr       0.39598000       2.95442000      22.00273000      -0.06942000       0.29818800       0.05030100
Zr       1.66365000       6.42823000      14.30647000       0.37914500       0.49443800      -0.48256000
Zr       0.82310000       2.69483000      18.00678000      -0.01065500       0.06816500      -0.19152300
Zr       2.64231000       0.85482000      20.40366000       0.01065500      -0.06816500       0.19152300
Zr       3.06603000       4.25716000      20.11245000       0.05221000      -0.26269800       0.10885800
Zr       1.20410000       3.02152000      14.60329000       0.38165800      -0.07348400       0.26566200
Zr       1.98173000       6.57534000      10.88224000       1.00052200       0.02035400      -0.36380800
