60
Lattice="5.146 0.0 0.0 0.840294 7.390122 0.0 0.0 0.0 38.41044" Properties=species:S:1:pos:R:3:forces:R:3 energy=-565.73810551 stress="14.05565 -0.40403 1.19361 -0.40403 11.2182 2.87878 1.19361 2.87878 12.50802" pbc="T T T"
O        4.21683000       3.60615000      18.54204000      -0.14459300       0.09139500       0.06651800
O        4.63681000       6.14668000      17.37770000      -0.16679500      -0.08569300      -0.17406100
O        4.81490000       4.79309000      21.03274000       0.16679500       0.08569300       0.17406100
O        1.92028000       4.66529000      18.21913000      -0.10045900      -0.02026600       0.05170300
O        2.38542000       6.27448000      20.19131000       0.10045900       0.02026600      -0.05170300
O        1.96540000       0.79588000      18.39103000       0.09278700       0.08447300      -0.03330300
O        1.50001000       2.75376000      20.01941000      -0.09278700      -0.08447300       0.03330300
O        4.39773000       3.61051000      23.58215000       0.11634600      -0.20055800       0.16587500
O        4.22064000       7.26857000      22.22911000      -0.15204600       0.06447600       0.20728500
O        3.79847000       2.42300000      21.07664000      -0.15644400      -0.10327500      -0.07369200
O        1.10219000       0.69429000      25.73135000       0.07662800       0.27044500       0.14637300
O        4.00872000       1.07027000      24.73264000      -0.08418600       0.17495900      -0.04158700
O        1.52984000       2.54387000      23.91131000       0.20646400      -0.05216600       0.00098900
O        1.96517000       4.45806000      22.09295000       0.12096500       0.06374200       0.00661600
O        1.51074000       6.42707000      23.72447000      -0.11369000      -0.16090700      -0.04249500
O        3.46699000       0.15038000      27.25082000       1.21780400       0.27008100      -0.31710600
O        3.36843000       3.53063000      25.97809000       0.57818300      -0.14409200      -0.28258300
O        3.79206000       6.07743000      24.79789000      -0.27657000       0.09300800      -0.05543500
O        3.79904000       4.77247000      28.50436000      -0.38965300      -0.48005000       0.14705700
O        1.05308000       4.61674000      25.59864000      -0.23103500       0.15189900       0.00054000
O        1.49673000       6.32223000      27.65566000      -0.07627900      -0.00834300      -0.51838200
O        1.08304000       0.94298000      21.90900000      -0.03244900      -0.03453900       0.19310900
O        5.23488000       7.33362000      19.86840000       0.14459300      -0.09139500      -0.06651800
O        1.03624000       2.56781000      27.55576000       0.27755000       0.08381300      -0.01307600
O        0.09698000       0.01902000      12.43235000      -0.57818300       0.14409200       0.28258300
O        3.25262000       6.32302000      12.81180000       0.23103500      -0.15189900      -0.00054000
O        2.42917000       0.98184000      10.85468000      -0.27755000      -0.08381300       0.01307600
O        2.36323000       2.85536000      12.67909000      -0.07662800      -0.27044500      -0.14637300
O        2.34053000       6.48170000      16.31749000      -0.12096500      -0.06374200      -0.00661600
O        5.65267000       6.16730000       9.90608000       0.38965300       0.48005000      -0.14705700
O        5.14442000       3.39926000      11.15962000      -1.21780400      -0.27008100       0.31710600
O        2.80897000       4.61754000      10.75478000       0.07627900       0.00834300       0.51838200
O        5.23107000       3.67119000      16.18133000       0.15204600      -0.06447600      -0.20728500
O        5.65964000       4.86234000      13.61255000       0.27657000      -0.09300800       0.05543500
O        4.60269000       2.47937000      13.67781000       0.08418600      -0.17495900       0.04158700
O        4.81294000       1.12665000      17.33380000       0.15644400       0.10327500       0.07369200
O        1.93557000       1.00578000      14.49913000      -0.20646400       0.05216600      -0.00098900
O        2.38237000       2.60667000      16.50144000       0.03244900       0.03453900      -0.19310900
O        2.79497000       4.51269000      14.68597000       0.11369000       0.16090700       0.04249500
O        5.05398000       7.32926000      14.82829000      -0.11634600       0.20055800      -0.16587500
Zr       5.16323000       2.65921000      25.48836000      -0.08869500       0.41102700      -0.19959400
Zr       1.71618000       0.62319000      27.64441000      -0.56874900      -0.04428600       0.39000100
Zr       2.31357000       4.36561000      27.53102000      -0.19280700       0.02537600       0.60595400
Zr       5.48646000       6.62911000      25.72771000       0.04072500      -0.06367800       0.57486300
Zr       1.74923000       2.92646000      10.76603000       0.56874900       0.04428600      -0.39000100
Zr       3.44818000       0.89043000      12.92208000       0.08869500      -0.41102700       0.19959400
Zr       3.96525000       4.31066000      12.68273000      -0.04072500       0.06367800      -0.57486300
Zr       1.24118000       6.68610000      18.28817000      -0.08899100       0.19839500       0.05186400
Zr       3.06737000       0.59175000      16.41727000       0.11296300      -0.23352700      -0.15538600
Zr       3.47330000       4.57078000      16.70393000      -0.03000900       0.08472600       0.28994300
Zr       0.83241000       6.36899000      21.70651000       0.03000900      -0.08472600      -0.28994300
Zr       2.64179000       4.49921000      24.10594000      -0.24696800      -0.14217900       0.44852000
Zr       2.25905000       0.52735000      23.81113000      -0.24218300      -0.01107000      -0.17417700
Zr       0.39804000       2.95790000      21.99317000      -0.11296300       0.23352700       0.15538600
Zr       1.66391000       6.44056000      14.30450000       0.24696800       0.14217900      -0.44852000
Zr       0.82418000       2.70276000      18.00277000      -0.05129000      -0.03708800      -0.13937700
Zr       2.64123000       0.84688000      20.40767000       0.05129000       0.03708800       0.13937700
Zr       3.06453000       4.25367000      20.12227000       0.08899100      -0.19839500      -0.05186400
Zr       1.20636000       3.02229000      14.59931000       0.24218300       0.01107000       0.17417700
Zr       1.99214000       6.57416000      10.87942000       0.19280700      -0.02537600      -0.60595400
