60
Lattice="5.146 0.0 0.0 0.840294 7.390122 0.0 0.0 0.0 38.41044" Properties=species:S:1:pos:R:3:forces:R:3 energy=-565.95805589 stress="11.92692 0.52808 3.02485 0.52808 10.94089 2.97459 3.02485 2.97459 13.12886" pbc="T T T"
O        4.20772000       3.61239000      18.54300000       0.04206000       0.00048300      -0.01226000
O        4.62666000       6.14545000      17.36778000       0.05557000       0.05003500      -0.05565000
O        4.82505000       4.79432000      21.04266000      -0.05557000      -0.05003500       0.05565000
O        1.91167000       4.66211000      18.22577000      -0.09304600       0.02545600       0.02304800
O        2.39404000       6.27766000      20.18467000       0.09304600      -0.02545600      -0.02304800
O        1.97376000       0.80391000      18.38690000       0.06348500       0.00503400       0.00478700
O        1.49166000       2.74574000      20.02354000      -0.06348500      -0.00503400      -0.00478700
O        4.40631000       3.59924000      23.59257000      -0.05150000      -0.05102300       0.15088800
O        4.21165000       7.27351000      22.23470000       0.07067000      -0.02395600       0.00710200
O        3.78921000       2.42085000      21.07146000       0.05804300       0.01963500       0.01121400
O        1.10898000       0.70954000      25.73402000       0.02567300       0.08084400       0.46949400
O        4.00854000       1.07785000      24.73231000      -0.05949000       0.03573400      -0.00294800
O        1.54188000       2.54542000      23.90796000       0.14145600       0.04068900       0.06509600
O        1.97444000       4.46456000      22.09106000       0.10398800      -0.03770600       0.08038200
O        1.50282000       6.41541000      23.72363000      -0.13462900      -0.08262400       0.03220400
O        3.50791000       0.16924000      27.24420000      -0.01879300       0.54047800       0.23308100
O        3.39095000       3.52807000      25.96678000      -0.00635700       0.18888600       0.31820600
O        3.77483000       6.08079000      24.79276000       0.03587900       0.12189000       0.22498200
O        3.77344000       4.74627000      28.51113000       0.49728800      -0.19866400       0.78572000
O        1.03863000       4.61993000      25.60507000      -0.06674600       0.03376500       0.12143400
O        1.48972000       6.31749000      27.63494000       0.15228000       0.08898200      -0.14822300
O        1.07733000       0.93971000      21.92103000      -0.04100700       0.05592700       0.06424600
O        5.24399000       7.32738000      19.86744000      -0.04206000      -0.00048300       0.01226000
O        1.05579000       2.56473000      27.56216000       0.23066800       0.08124600       0.24656500
O        0.07446000       0.02157000      12.44366000       0.00635700      -0.18888600      -0.31820600
O        3.26707000       6.31984000      12.80537000       0.06674600      -0.03376500      -0.12143400
O        2.40962000       0.98491000      10.84828000      -0.23066800      -0.08124600      -0.24656500
O        2.35643000       2.84011000      12.67642000      -0.02567300      -0.08084400      -0.46949400
O        2.33126000       6.47521000      16.31938000      -0.10398800       0.03770600      -0.08038200
O        5.67826000       6.19350000       9.89931000      -0.49728800       0.19866400      -0.78572000
O        5.10351000       3.38040000      11.16624000       0.01879300      -0.54047800      -0.23308100
O        2.81599000       4.62228000      10.77550000      -0.15228000      -0.08898200       0.14822300
O        5.24006000       3.66626000      16.17574000      -0.07067000       0.02395600      -0.00710200
O        5.67687000       4.85898000      13.61768000      -0.03587900      -0.12189000      -0.22498200
O        4.60288000       2.47180000      13.67813000       0.05949000      -0.03573400       0.00294800
O        4.82221000       1.12879000      17.33898000      -0.05804300      -0.01963500      -0.01121400
O        1.92353000       1.00422000      14.50248000      -0.14145600      -0.04068900      -0.06509600
O        2.38808000       2.60994000      16.48941000       0.04100700      -0.05592700      -0.06424600
O        2.80289000       4.52436000      14.68681000       0.13462900       0.08262400      -0.03220400
O        5.04540000       7.34053000      14.81787000       0.05150000       0.05102300      -0.15088800
Zr       5.15950000       2.66866000      25.48542000      -0.00384000       0.11040600      -0.52843700
Zr       1.70593000       0.63217000      27.65215000       0.40167400      -0.34918700      -0.31322600
Zr       2.31144000       4.36598000      27.55310000      -0.86157300      -0.35134700      -0.52912000
Zr       5.48180000       6.62965000      25.75345000      -0.14250700       0.13792200      -0.26868400
Zr       1.75948000       2.91748000      10.75829000      -0.40167400       0.34918700       0.31322600
Zr       3.45192000       0.88099000      12.92502000       0.00384000      -0.11040600       0.52843700
Zr       3.96990000       4.31012000      12.65699000       0.14250700      -0.13792200       0.26868400
Zr       1.23695000       6.69200000      18.29524000       0.10531700       0.10878100      -0.12187000
Zr       3.07282000       0.58447000      16.40631000      -0.04596400      -0.10062900      -0.03926800
Zr       3.47159000       4.57848000      16.71200000      -0.09126900      -0.07690900       0.04861300
Zr       0.83411000       6.36129000      21.69844000       0.09126900       0.07690900      -0.04861300
Zr       2.63234000       4.50004000      24.12235000      -0.16086100      -0.09155600       0.08770800
Zr       2.25081000       0.52732000      23.80232000      -0.14222800      -0.08269900      -0.06971600
Zr       0.39259000       2.96518000      22.00413000       0.04596400       0.10062900       0.03926800
Zr       1.67337000       6.43973000      14.28809000       0.16086100       0.09155600      -0.08770800
Zr       0.82163000       2.69724000      17.99943000       0.11570100       0.07439800      -0.13905400
Zr       2.64378000       0.85241000      20.41101000      -0.11570100      -0.07439800       0.13905400
Zr       3.06876000       4.24776000      20.11520000      -0.10531700      -0.10878100       0.12187000
Zr       1.21460000       3.02233000      14.60812000       0.14222800       0.08269900       0.06971600
Zr       1.99427000       6.57378000      10.85734000       0.86157300       0.35134700       0.52912000
