60
Lattice="5.146 0.0 0.0 0.840294 7.390122 0.0 0.0 0.0 38.41044" Properties=species:S:1:pos:R:3:forces:R:3 energy=-566.11527752 stress="6.97286 0.45606 0.39077 0.45606 11.13686 2.35445 0.39077 2.35445 13.21988" pbc="T T T"
O        4.20270000       3.61695000      18.54322000       0.14229700      -0.05091100      -0.05123200
O        4.62140000       6.14647000      17.35841000       0.16121200       0.10493400      -0.00375300
O        4.83030000       4.79330000      21.05203000      -0.16121200      -0.10493400       0.00375300
O        1.90181000       4.66077000      18.23150000      -0.05454900       0.03374500      -0.01360300
O        2.40390000       6.27900000      20.17894000       0.05454900      -0.03374500       0.01360300
O        1.98229000       0.80995000      18.38408000       0.02972200      -0.02819700       0.01577800
O        1.48312000       2.73970000      20.02636000      -0.02972200       0.02819700      -0.01577800
O        4.41058000       3.58907000      23.60598000      -0.12509300       0.07834900      -0.01416000
O        4.20782000       7.27618000      22.23904000       0.18231600      -0.07159300      -0.13709400
O        3.78469000       2.42005000      21.06813000       0.17437300       0.06137700       0.07792700
O        1.11492000       0.72376000      25.75405000      -0.10535600       0.00774900      -0.11030800
O        4.00611000       1.08474000      24.73196000      -0.10749400      -0.07825700      -0.12615300
O        1.55611000       2.54812000      23.90803000       0.08708100       0.09776100      -0.02186000
O        1.98520000       4.46784000      22.09278000       0.04209400      -0.08803900       0.05735600
O        1.49186000       6.40373000      23.72425000      -0.10278200       0.00085500       0.02188800
O        3.53699000       0.20380000      27.24835000      -0.18018800       0.44272300       0.21447900
O        3.40711000       3.53349000      25.97079000      -0.33024400       0.35361100       0.30214700
O        3.76366000       6.08793000      24.79768000       0.00002400       0.02759300       0.18849500
O        3.77396000       4.71953000      28.54633000      -0.71945500      -0.41559900      -0.09684300
O        1.02553000       4.62356000      25.61443000       0.07814900      -0.08007900       0.00684700
O        1.49047000       6.31747000      27.61413000       0.14794500      -0.05436900      -0.09044600
O        1.07159000       0.93947000      21.93227000      -0.04989400       0.08489600      -0.03818000
O        5.24900000       7.32281000      19.86722000      -0.14229700       0.05091100       0.05123200
O        1.07892000       2.56562000      27.57632000       0.14042100       0.01914700       0.19741600
O        0.05830000       0.01616000      12.43965000       0.33024400      -0.35361100      -0.30214700
O        3.28017000       6.31621000      12.79601000      -0.07814900       0.08007900      -0.00684700
O        2.38649000       0.98403000      10.83412000      -0.14042100      -0.01914700      -0.19741600
O        2.35049000       2.82588000      12.65639000       0.10535600      -0.00774900       0.11030800
O        2.32051000       6.47193000      16.31766000      -0.04209400       0.08803900      -0.05735600
O        5.67775000       6.22024000       9.86411000       0.71945500       0.41559900       0.09684300
O        5.07442000       3.34585000      11.16209000       0.18018800      -0.44272300      -0.21447900
O        2.81523000       4.62230000      10.79631000      -0.14794500       0.05436900       0.09044600
O        5.24389000       3.66358000      16.17140000      -0.18231600       0.07159300       0.13709400
O        5.68804000       4.85184000      13.61276000      -0.00002400      -0.02759300      -0.18849500
O        4.60530000       2.46491000      13.67848000       0.10749400       0.07825700       0.12615300
O        4.82672000       1.12960000      17.34231000      -0.17437300      -0.06137700      -0.07792700
O        1.90931000       1.00152000      14.50241000      -0.08708100      -0.09776100       0.02186000
O        2.39382000       2.61017000      16.47817000       0.04989400      -0.08489600       0.03818000
O        2.81384000       4.53604000      14.68619000       0.10278200      -0.00085500      -0.02188800
O        5.04113000       7.35070000      14.80446000       0.12509300      -0.07834900       0.01416000
Zr       5.15663000       2.67979000      25.46292000      -0.06759600      -0.22880900      -0.10228600
Zr       1.71394000       0.62526000      27.64572000       0.58753500      -0.14152100       0.02730100
Zr       2.27670000       4.35272000      27.54881000       0.60292700      -0.02285100       0.46036000
Zr       5.47292000       6.63535000      25.76185000      -0.13286900       0.39689200      -0.24173800
Zr       1.75147000       2.92438000      10.76472000      -0.58753500       0.14152100      -0.02730100
Zr       3.45479000       0.86985000      12.94752000       0.06759600       0.22880900       0.10228600
Zr       3.97878000       4.30441000      12.64859000       0.13286900      -0.39689200       0.24173800
Zr       1.23792000       6.70050000      18.29570000       0.14895400       0.02912800      -0.17278100
Zr       3.07502000       0.57529000      16.39681000      -0.08939600      -0.00779600       0.06006500
Zr       3.46684000       4.58113000      16.71975000      -0.05217800      -0.11845300      -0.11784600
Zr       0.83887000       6.35863000      21.69069000       0.05217800       0.11845300       0.11784600
Zr       2.61925000       4.49712000      24.13768000       0.04302900       0.05690100       0.07929500
Zr       2.23933000       0.52411000      23.79321000       0.00514600      -0.12621800       0.30839200
Zr       0.39039000       2.97436000      22.01363000       0.08939600       0.00779600      -0.06006500
Zr       1.68646000       6.44265000      14.27276000      -0.04302900      -0.05690100      -0.07929500
Zr       0.82423000       2.69607000      17.99163000       0.11229900       0.11400800      -0.05070500
Zr       2.64118000       0.85357000      20.41881000      -0.11229900      -0.11400800       0.05070500
Zr       3.06779000       4.23927000      20.11474000      -0.14895400      -0.02912800       0.17278100
Zr       1.22608000       3.02554000      14.61723000      -0.00514600       0.12621800      -0.30839200
Zr       2.02901000       6.58704000      10.86163000      -0.60292700       0.02285100      -0.46036000
