60
Lattice="5.146 0.0 0.0 0.840294 7.390122 0.0 0.0 0.0 38.41044" Properties=species:S:1:pos:R:3:forces:R:3 energy=-566.56274222 stress="7.48068 2.94145 0.59835 2.94145 9.16465 2.02748 0.59835 2.02748 7.37674" pbc="T T T"
O        4.20992000       3.62633000      18.54993000       0.05820400       0.02251300      -0.05585800
O        4.63982000       6.15112000      17.32860000      -0.00394200       0.06883400      -0.01356900
O        4.81189000       4.78864000      21.08184000       0.00394200      -0.06883400       0.01356900
O        1.89713000       4.66183000      18.22927000       0.02659300       0.02371700       0.01127400
O        2.40857000       6.27793000      20.18117000      -0.02659300      -0.02371700      -0.01127400
O        1.98587000       0.81534000      18.37556000      -0.00597900      -0.02774100      -0.00503800
O        1.47954000       2.73430000      20.03488000       0.00597900       0.02774100       0.00503800
O        4.38639000       3.58941000      23.62397000      -0.09260000       0.03545900       0.02667000
O        4.20969000       7.26469000      22.24877000      -0.06460000      -0.00607400       0.02944400
O        3.79938000       2.40793000      21.07760000       0.04333500       0.04944900       0.04297800
O        1.10378000       0.77843000      25.74557000       0.08607700       0.01692900       0.11459500
O        3.98329000       1.09380000      24.69872000       0.04334900       0.02837300       0.01143000
O        1.56163000       2.56588000      23.91342000      -0.02928000       0.03460700      -0.02752600
O        1.99214000       4.47416000      22.10791000      -0.04793600       0.00994600       0.10383800
O        1.45270000       6.40256000      23.75077000       0.07789500       0.03232500       0.06647900
O        3.64223000       0.38381000      27.28002000       0.15703500      -0.13878500      -0.16153500
O        3.40639000       3.61079000      26.02694000      -0.07564000      -0.03803500       0.07617200
O        3.72986000       6.12303000      24.88178000       0.00303300       0.05951900       0.03542600
O        3.66894000       4.55853000      28.73667000       0.05575600      -0.02808400       0.28077800
O        0.98483000       4.60477000      25.62231000       0.01981900       0.06793200       0.05137700
O        1.56306000       6.31532000      27.55798000       0.02708000      -0.01952700       0.04335600
O        1.06430000       0.93502000      21.94697000       0.00248200       0.06111400       0.02220600
O        5.24178000       7.31344000      19.86051000      -0.05820400      -0.02251300       0.05585800
O        1.14006000       2.52256000      27.69099000      -0.04852000       0.17511200       0.03792500
O        0.05902000      -0.06114000      12.38350000       0.07564000       0.03803500      -0.07617200
O        3.32088000       6.33500000      12.78813000      -0.01981900      -0.06793200      -0.05137700
O        2.32536000       1.02708000      10.71945000       0.04852000      -0.17511200      -0.03792500
O        2.36163000       2.77121000      12.66487000      -0.08607700      -0.01692900      -0.11459500
O        2.31357000       6.46560000      16.30253000       0.04793600      -0.00994600      -0.10383800
O        5.78276000       6.38124000       9.67377000      -0.05575600       0.02808400      -0.28077800
O        4.96919000       3.16584000      11.13042000      -0.15703500       0.13878500       0.16153500
O        2.74265000       4.62445000      10.85246000      -0.02708000       0.01952700      -0.04335600
O        5.24201000       3.67508000      16.16168000       0.06460000       0.00607400      -0.02944400
O        0.57585000       4.81674000      13.52866000      -0.00303300      -0.05951900      -0.03542600
O        4.62813000       2.45585000      13.71172000      -0.04334900      -0.02837300      -0.01143000
O        4.81203000       1.14171000      17.33284000      -0.04333500      -0.04944900      -0.04297800
O        1.90378000       0.98376000      14.49702000       0.02928000      -0.03460700       0.02752600
O        2.40111000       2.61463000      16.46347000      -0.00248200      -0.06111400      -0.02220600
O        2.85300000       4.53721000      14.65967000      -0.07789500      -0.03232500      -0.06647900
O        5.06532000       7.35035000      14.78647000       0.09260000      -0.03545900      -0.02667000
Zr       5.11366000       2.68855000      25.44802000       0.05495600       0.06600300       0.05827800
Zr       1.79094000       0.63111000      27.64689000      -0.00402800       0.13415900      -0.00762500
Zr       2.26275000       4.31869000      27.63256000      -0.07653200      -0.16723500      -0.04464100
Zr       5.49442000       6.68258000      25.75522000      -0.10735900      -0.11274300      -0.02526600
Zr       1.67447000       2.91853000      10.76355000       0.00402800      -0.13415900       0.00762500
Zr       3.49775000       0.86110000      12.96242000      -0.05495600      -0.06600300      -0.05827800
Zr       3.95729000       4.25719000      12.65522000       0.10735900       0.11274300       0.02526600
Zr       1.24783000       6.71126000      18.27417000       0.01680200      -0.00236700       0.01176300
Zr       3.06284000       0.56898000      16.38281000       0.09496400      -0.02571000       0.10345200
Zr       3.47251000       4.57625000      16.71719000      -0.01819400       0.01341700       0.00509000
Zr       0.83319000       6.36352000      21.69325000       0.01819400      -0.01341700      -0.00509000
Zr       2.60256000       4.51364000      24.18623000      -0.04081800       0.07133800       0.06342900
Zr       2.21499000       0.52582000      23.81595000       0.07369800      -0.02898100      -0.03492500
Zr       0.40257000       2.98067000      22.02763000      -0.09496400       0.02571000      -0.10345200
Zr       1.70315000       6.42613000      14.22422000       0.04081800      -0.07133800      -0.06342900
Zr       0.82357000       2.71052000      17.97763000       0.04776000      -0.01769100       0.08517900
Zr       2.64185000       0.83913000      20.43281000      -0.04776000       0.01769100      -0.08517900
Zr       3.05787000       4.22851000      20.13627000      -0.01680200       0.00236700      -0.01176300
Zr       1.25043000       3.02382000      14.59449000      -0.07369800       0.02898100       0.03492500
Zr       2.04296000       6.62108000      10.77788000       0.07653200       0.16723500       0.04464100
