60
Lattice="5.146 0.0 0.0 0.840294 7.390122 0.0 0.0 0.0 38.41044" Properties=species:S:1:pos:R:3:forces:R:3 energy=-566.69416558 stress="3.98005 3.21559 -0.65546 3.21559 5.33217 0.54891 -0.65546 0.54891 1.08448" pbc="T T T"
O        4.22716000       3.64675000      18.54589000      -0.00364700      -0.04445500      -0.01113700
O        4.64645000       6.15239000      17.31715000       0.00872500       0.02502400      -0.03081400
O        4.80525000       4.78737000      21.09329000      -0.00872500      -0.02502400       0.03081400
O        1.91052000       4.66565000      18.22201000       0.01734700      -0.00835700       0.00553500
O        2.39518000       6.27412000      20.18843000      -0.01734700       0.00835700      -0.00553500
O        1.98981000       0.80503000      18.37688000      -0.02525300      -0.00062800      -0.02929400
O        1.47560000       2.74462000      20.03356000       0.02525300       0.00062800       0.02929400
O        4.35838000       3.61306000      23.65551000       0.00751000       0.03016000       0.01007000
O        4.18906000       7.25169000      22.25671000       0.03202900       0.02978800      -0.02432800
O        3.78848000       2.41017000      21.08496000       0.04177800       0.03226000       0.04229900
O        1.13021000       0.82325000      25.77021000      -0.02570500      -0.03757200      -0.00644600
O        4.01138000       1.11397000      24.68084000       0.02040400       0.04154300       0.10293700
O        1.54627000       2.59421000      23.92898000       0.02145300      -0.00202100       0.02515000
O        1.97230000       4.49611000      22.14074000       0.00274400      -0.02796200       0.00329400
O        1.46615000       6.42945000      23.77662000       0.02414000      -0.00864000       0.04383100
O        3.68101000       0.37613000      27.26816000      -0.01401200      -0.00801400       0.01847300
O        3.39602000       3.61094000      26.09634000       0.01686600       0.07236700      -0.01712500
O        3.73398000       6.15040000      24.91484000       0.01403700       0.01764700      -0.00903200
O        3.58426000       4.42946000      28.95736000      -0.12269400      -0.07701200      -0.04784300
O        0.96602000       4.62758000      25.65948000       0.05767700      -0.00576800      -0.02543900
O        1.64050000       6.33620000      27.58267000      -0.02895100      -0.01303700       0.01696700
O        1.05565000       0.95346000      21.95608000       0.01765600       0.01632400       0.00254500
O        5.22454000       7.29302000      19.86455000       0.00364700       0.04445500       0.01113700
O        1.12326000       2.55355000      27.73757000      -0.08134700      -0.02144300      -0.07507500
O        0.06939000      -0.06130000      12.31410000      -0.01686600      -0.07236700       0.01712500
O        3.33968000       6.31219000      12.75096000      -0.05767700       0.00576800       0.02543900
O        2.34215000       0.99610000      10.67287000       0.08134700       0.02144300       0.07507500
O        2.33520000       2.72640000      12.64023000       0.02570500       0.03757200       0.00644600
O        2.33340000       6.44366000      16.26970000      -0.00274400       0.02796200      -0.00329400
O        5.86745000       6.51031000       9.45308000       0.12269400       0.07701200       0.04784300
O        4.93040000       3.17351000      11.14228000       0.01401200       0.00801400      -0.01847300
O        2.66521000       4.60357000      10.82777000       0.02895100       0.01303700      -0.01696700
O        5.26264000       3.68807000      16.15373000      -0.03202900      -0.02978800       0.02432800
O        0.57173000       4.78937000      13.49560000      -0.01403700      -0.01764700       0.00903200
O        4.60004000       2.43567000      13.72960000      -0.02040400      -0.04154300      -0.10293700
O        4.82293000       1.13947000      17.32548000      -0.04177800      -0.03226000      -0.04229900
O        1.91914000       0.95544000      14.48146000      -0.02145300       0.00202100      -0.02515000
O        2.40976000       2.59619000      16.45436000      -0.01765600      -0.01632400      -0.00254500
O        2.83956000       4.51032000      14.63382000      -0.02414000       0.00864000      -0.04383100
O        5.09333000       7.32671000      14.75494000      -0.00751000      -0.03016000      -0.01007000
Zr       5.10999000       2.71467000      25.48431000       0.04209900      -0.01925200      -0.00276500
Zr       1.82489000       0.67138000      27.65274000       0.02694000       0.01903800       0.05904600
Zr       2.27314000       4.30959000      27.72220000       0.09016300       0.06555300       0.10157900
Zr       5.52009000       6.69759000      25.75990000      -0.07130700       0.00424300       0.04344700
Zr       1.64052000       2.87827000      10.75770000      -0.02694000      -0.01903800      -0.05904600
Zr       3.50142000       0.83498000      12.92613000      -0.04209900       0.01925200       0.00276500
Zr       3.93162000       4.24218000      12.65054000       0.07130700      -0.00424300      -0.04344700
Zr       1.24671000       6.71192000      18.27438000       0.03676000      -0.03675700      -0.00217400
Zr       3.08675000       0.54851000      16.35772000      -0.03593800       0.02335100       0.00825500
Zr       3.47406000       4.57055000      16.70217000       0.01309200      -0.03060800       0.00555400
Zr       0.83165000       6.36922000      21.70827000      -0.01309200       0.03060800      -0.00555400
Zr       2.58891000       4.54211000      24.22989000       0.02079600      -0.02378800      -0.05482600
Zr       2.23023000       0.55312000      23.82816000       0.00816900       0.01562700      -0.00555600
Zr       0.37867000       3.00114000      22.05272000       0.03593800      -0.02335100      -0.00825500
Zr       1.71680000       6.39766000      14.18055000      -0.02079600       0.02378800       0.05482600
Zr       0.83753000       2.70954000      17.97641000       0.00230800       0.02110900      -0.00673200
Zr       2.62788000       0.84010000      20.43403000      -0.00230800      -0.02110900       0.00673200
Zr       3.05899000       4.22785000      20.13607000      -0.03676000       0.03675700       0.00217400
Zr       1.23518000       2.99652000      14.58228000      -0.00816900      -0.01562700       0.00555600
Zr       2.03257000       6.63018000      10.68824000      -0.09016300      -0.06555300      -0.10157900
