60
Lattice="5.146 0.0 0.0 0.840294 7.390122 0.0 0.0 0.0 38.41044" Properties=species:S:1:pos:R:3:forces:R:3 energy=-566.72063008 stress="2.49411 2.99997 -0.94669 2.99997 3.76957 -0.49103 -0.94669 -0.49103 -2.1614" pbc="T T T"
O        4.22957000       3.63974000      18.54640000      -0.07196400      -0.00087500       0.00346700
O        4.65490000       6.14800000      17.30764000      -0.08419900      -0.03035100      -0.03992400
O        4.79680000       4.79176000      21.10280000       0.08419900       0.03035100       0.03992400
O        1.91161000       4.66353000      18.21856000       0.05783900      -0.03103200      -0.00805700
O        2.39409000       6.27624000      20.19188000      -0.05783900       0.03103200       0.00805700
O        1.99517000       0.80501000      18.37290000      -0.08897700      -0.02058600      -0.00353500
O        1.47024000       2.74463000      20.03754000       0.08897700       0.02058600       0.00353500
O        4.36931000       3.62682000      23.67259000       0.05320700      -0.01724000      -0.04460100
O        4.18782000       7.26317000      22.25517000       0.03535100       0.03121400       0.04271400
O        3.78952000       2.41923000      21.09935000      -0.03140800      -0.02188300      -0.00427200
O        1.13456000       0.82598000      25.78490000       0.01074700      -0.08255300      -0.03473400
O        4.02042000       1.12731000      24.69259000      -0.04229900       0.00683800       0.14825400
O        1.56012000       2.60759000      23.94831000      -0.01984500      -0.07910500      -0.01531200
O        1.97425000       4.49862000      22.14732000      -0.02931600      -0.00190000      -0.04888200
O        1.47258000       6.43182000      23.78493000       0.04807900       0.08382800      -0.03630200
O        3.67487000       0.35252000      27.29984000      -0.02221400       0.02318700      -0.05511200
O        3.40542000       3.62564000      26.12316000       0.06640000       0.09164900      -0.00079700
O        3.75420000       6.15447000      24.90147000      -0.04660700       0.10038500       0.03136700
O        3.53856000       4.36145000      29.02976000      -0.00290700      -0.05044100       0.04236100
O        0.97826000       4.64587000      25.66769000       0.02238300      -0.03410400      -0.00110200
O        1.64698000       6.34838000      27.60710000       0.06599000       0.03752100       0.07335900
O        1.05346000       0.96459000      21.96766000       0.04508000      -0.04604700       0.00669300
O        5.22213000       7.30003000      19.86404000       0.07196400       0.00087500      -0.00346700
O        1.09911000       2.57547000      27.71457000      -0.04334800      -0.00786200      -0.08936100
O        0.05999000      -0.07599000      12.28728000      -0.06640000      -0.09164900       0.00079700
O        3.32744000       6.29390000      12.74275000      -0.02238300       0.03410400       0.00110200
O        2.36630000       0.97417000      10.69587000       0.04334800       0.00786200       0.08936100
O        2.33085000       2.72366000      12.62554000      -0.01074700       0.08255300       0.03473400
O        2.33146000       6.44114000      16.26312000       0.02931600       0.00190000       0.04888200
O        0.76715000       6.57832000       9.38068000       0.00290700       0.05044100      -0.04236100
O        4.93654000       3.19712000      11.11060000       0.02221400      -0.02318700       0.05511200
O        2.65873000       4.59139000      10.80334000      -0.06599000      -0.03752100      -0.07335900
O        5.26389000       3.67659000      16.15527000      -0.03535100      -0.03121400      -0.04271400
O        0.55151000       4.78530000      13.50897000       0.04660700      -0.10038500      -0.03136700
O        4.59099000       2.42234000      13.71785000       0.04229900      -0.00683800      -0.14825400
O        4.82189000       1.13041000      17.31109000       0.03140800       0.02188300       0.00427200
O        1.90529000       0.94206000      14.46213000       0.01984500       0.07910500       0.01531200
O        2.41196000       2.58506000      16.44278000      -0.04508000       0.04604700      -0.00669300
O        2.83312000       4.50795000      14.62551000      -0.04807900      -0.08382800       0.03630200
O        5.08239000       7.31295000      14.73785000      -0.05320700       0.01724000       0.04460100
Zr       5.12132000       2.72852000      25.51046000       0.04935800       0.01047000      -0.02011600
Zr       1.82511000       0.68893000      27.66985000      -0.12093600      -0.00760500      -0.00774800
Zr       2.27485000       4.32262000      27.75042000      -0.06549500      -0.09275400      -0.11145800
Zr       5.51991000       6.70304000      25.77064000       0.02675700       0.04474400      -0.01222500
Zr       1.64030000       2.86072000      10.74059000       0.12093600       0.00760500       0.00774800
Zr       3.49009000       0.82113000      12.89998000      -0.04935800      -0.01047000       0.02011600
Zr       3.93179000       4.23673000      12.63980000      -0.02675700      -0.04474400       0.01222500
Zr       1.25020000       6.70799000      18.27117000      -0.02963700       0.06616900       0.00593900
Zr       3.08003000       0.54462000      16.34514000       0.08799600      -0.05351000       0.00619800
Zr       3.47856000       4.56620000      16.69625000      -0.01905500      -0.00642500       0.01129700
Zr       0.82714000       6.37357000      21.71419000       0.01905500       0.00642500      -0.01129700
Zr       2.60040000       4.54900000      24.23404000      -0.04776700       0.00248200       0.02153600
Zr       2.23318000       0.56686000      23.83237000       0.05592300      -0.06348000       0.10270700
Zr       0.38539000       3.00503000      22.06530000      -0.08799600       0.05351000      -0.00619800
Zr       1.70530000       6.39077000      14.17640000       0.04776700      -0.00248200      -0.02153600
Zr       0.83628000       2.70457000      17.97078000      -0.01183600      -0.04970000       0.06769000
Zr       2.62913000       0.84507000      20.43966000       0.01183600       0.04970000      -0.06769000
Zr       3.05551000       4.23178000      20.13927000       0.02963700      -0.06616900      -0.00593900
Zr       1.23223000       2.98279000      14.57807000      -0.05592300       0.06348000      -0.10270700
Zr       2.03086000       6.61715000      10.66002000       0.06549500       0.09275400       0.11145800
