60
Lattice="5.146 0.0 0.0 0.840294 7.390122 0.0 0.0 0.0 38.41044" Properties=species:S:1:pos:R:3:forces:R:3 energy=-566.72180771 stress="2.28386 2.90537 -1.08279 2.90537 3.42656 -0.71598 -1.08279 -0.71598 -2.85409" pbc="T T T"
O        4.22970000       3.63815000      18.54665000      -0.07890300       0.00720600      -0.00278100
O        4.65649000       6.14741000      17.30567000      -0.10681600      -0.05085700      -0.04762100
O        4.79522000       4.79235000      21.10477000       0.10681600       0.05085700       0.04762100
O        1.91207000       4.66297000      18.21811000       0.06475800      -0.03412500      -0.02028900
O        2.39363000       6.27680000      20.19233000      -0.06475800       0.03412500       0.02028900
O        1.99580000       0.80487000      18.37183000      -0.09769400      -0.02048500       0.00699800
O        1.46961000       2.74477000      20.03861000       0.09769400       0.02048500      -0.00699800
O        4.37217000       3.62927000      23.67547000       0.03718900      -0.01096400      -0.03715200
O        4.18800000       7.26566000      22.25438000       0.02839400       0.02985000       0.07644400
O        3.78978000       2.42122000      21.10224000      -0.04374600      -0.03662400      -0.00840900
O        1.13532000       0.82618000      25.78787000       0.01987200      -0.09169200      -0.04749300
O        4.02255000       1.13040000      24.69610000      -0.06940600      -0.01131400       0.14301300
O        1.56264000       2.60994000      23.95211000      -0.01837200      -0.09194500      -0.01777800
O        1.97444000       4.49879000      22.14794000      -0.03002400       0.01120600      -0.03453100
O        1.47407000       6.43265000      23.78650000       0.05356300       0.09327400      -0.04399500
O        3.67292000       0.34812000      27.30629000       0.00206900       0.02022200      -0.08006300
O        3.40755000       3.62899000      26.12860000       0.07338900       0.10104700      -0.00530800
O        3.75844000       6.15595000      24.89914000      -0.07300400       0.10190900       0.02754300
O        3.52945000       4.34760000      29.04441000      -0.01360700      -0.04831900       0.02519200
O        0.98095000       4.64914000      25.66935000       0.01803200      -0.03147700      -0.00158200
O        1.64837000       6.35095000      27.61236000       0.08111600       0.04250000       0.07976300
O        1.05321000       0.96690000      21.96965000       0.05046300      -0.06482900       0.02117000
O        5.22200000       7.30162000      19.86379000       0.07890300      -0.00720600       0.00278100
O        1.09374000       2.57916000      27.70950000      -0.02698200       0.01701400      -0.09065400
O        0.05786000      -0.07935000      12.28184000      -0.07338900      -0.10104700       0.00530800
O        3.32475000       6.29062000      12.74109000      -0.01803200       0.03147700       0.00158200
O        2.37167000       0.97049000      10.70094000       0.02698200      -0.01701400       0.09065400
O        2.33009000       2.72347000      12.62257000      -0.01987200       0.09169200       0.04749300
O        2.33126000       6.44098000      16.26250000       0.03002400      -0.01120600       0.03453100
O        0.77625000       6.59217000       9.36603000       0.01360700       0.04831900      -0.02519200
O        4.93849000       3.20153000      11.10415000      -0.00206900      -0.02022200       0.08006300
O        2.65733000       4.58882000      10.79809000      -0.08111600      -0.04250000      -0.07976300
O        5.26371000       3.67411000      16.15606000      -0.02839400      -0.02985000      -0.07644400
O        0.54727000       4.78382000      13.51130000       0.07300400      -0.10190900      -0.02754300
O        4.58887000       2.41925000      13.71434000       0.06940600       0.01131400      -0.14301300
O        4.82163000       1.12843000      17.30820000       0.04374600       0.03662400       0.00840900
O        1.90277000       0.93971000      14.45833000       0.01837200       0.09194500       0.01777800
O        2.41220000       2.58274000      16.44079000      -0.05046300       0.06482900      -0.02117000
O        2.83163000       4.50712000      14.62394000      -0.05356300      -0.09327400       0.04399500
O        5.07954000       7.31050000      14.73497000      -0.03718900       0.01096400       0.03715200
Zr       5.12364000       2.73160000      25.51525000       0.06043900      -0.00161800      -0.01213100
Zr       1.82564000       0.69269000      27.67333000      -0.17531300      -0.02269600      -0.01471400
Zr       2.27516000       4.32529000      27.75539000      -0.07223300      -0.12472000      -0.11139300
Zr       5.51889000       6.70370000      25.77207000       0.07676300       0.07590600       0.01309200
Zr       1.63978000       2.85696000      10.73711000       0.17531300       0.02269600       0.01471400
Zr       3.48777000       0.81805000      12.89519000      -0.06043900       0.00161800       0.01213100
Zr       3.93282000       4.23607000      12.63837000      -0.07676300      -0.07590600      -0.01309200
Zr       1.25087000       6.70718000      18.27032000      -0.03749600       0.08741800       0.01734400
Zr       3.07892000       0.54363000      16.34204000       0.10541900      -0.06044400       0.03459700
Zr       3.47968000       4.56496000      16.69423000      -0.03413700       0.00809700       0.05076500
Zr       0.82603000       6.37481000      21.71621000       0.03413700      -0.00809700      -0.05076500
Zr       2.60264000       4.55071000      24.23489000      -0.06065400      -0.01163200       0.02451300
Zr       2.23405000       0.56879000      23.83356000       0.06010400      -0.04960600       0.11771800
Zr       0.38649000       3.00601000      22.06840000      -0.10541900       0.06044400      -0.03459700
Zr       1.70307000       6.38906000      14.17555000       0.06065400       0.01163200      -0.02451300
Zr       0.83592000       2.70376000      17.96919000      -0.01034900      -0.07174400       0.10928200
Zr       2.62949000       0.84589000      20.44125000       0.01034900       0.07174400      -0.10928200
Zr       3.05484000       4.23258000      20.14012000       0.03749600      -0.08741800      -0.01734400
Zr       1.23136000       2.98086000      14.57688000      -0.06010400       0.04960600      -0.11771800
Zr       2.03055000       6.61448000      10.65505000       0.07223300       0.12472000       0.11139300
