60
Lattice="5.146 0.0 0.0 0.840294 7.390122 0.0 0.0 0.0 38.41044" Properties=species:S:1:pos:R:3:forces:R:3 energy=-566.83018354 stress="2.38407 4.29662 -1.90957 4.29662 2.15065 -3.63209 -1.90957 -3.63209 -5.39868" pbc="T T T"
O        4.21592000       3.62114000      18.54927000       0.06665900      -0.03237800      -0.11336500
O        4.63894000       6.12474000      17.29762000       0.00924200      -0.00825100      -0.00277000
O        4.81277000       4.81503000      21.11282000      -0.00924200       0.00825100       0.00277000
O        1.90536000       4.65617000      18.20783000      -0.00980200       0.00753800      -0.00058700
O        2.40034000       6.28360000      20.20261000       0.00980200      -0.00753800       0.00058700
O        1.97337000       0.79340000      18.37428000       0.01104100       0.04571400       0.05573400
O        1.49204000       2.75624000      20.03616000      -0.01104100      -0.04571400      -0.05573400
O        4.38553000       3.64754000      23.68512000      -0.05907400       0.01686100       0.02658200
O        4.22770000       7.31772000      22.28364000       0.06567100      -0.02862200      -0.07369900
O        3.79591000       2.43920000      21.11483000       0.04925500      -0.00622700      -0.03480400
O        1.15147000       0.78698000      25.81144000       0.00808400       0.04677700       0.05442800
O        4.00980000       1.17149000      24.80173000       0.01118100      -0.04440100       0.00840700
O        1.57268000       2.62455000      23.99866000       0.02659400      -0.00018800      -0.02937600
O        1.97748000       4.51071000      22.16565000       0.02923500       0.02622800       0.04634800
O        1.50228000       6.47825000      23.78868000      -0.04014100      -0.05622600      -0.01717800
O        3.63938000       0.30101000      27.36219000       0.04085400      -0.02897900      -0.03660300
O        3.47712000       3.72951000      26.17680000      -0.02220000      -0.02721200      -0.05555300
O        3.78281000       6.19117000      24.89495000       0.04453800       0.00797400      -0.01493900
O        3.34213000       4.07339000      29.19789000      -0.13942600      -0.07409600      -0.20602800
O        1.01983000       4.70002000      25.68160000      -0.03112200       0.07155700      -0.02198500
O        1.67598000       6.37611000      27.72304000      -0.00640800      -0.05308100      -0.04186400
O        1.08288000       0.99326000      21.97856000      -0.02161000      -0.00620700       0.02180600
O        5.23578000       7.31863000      19.86117000      -0.06665900       0.03237800       0.11336500
O        1.02900000       2.62678000      27.58736000      -0.04129100      -0.06642000      -0.03256400
O       -0.01171000      -0.17986000      12.23364000       0.02220000       0.02721200       0.05555300
O        3.28587000       6.23975000      12.72884000       0.03112200      -0.07155700       0.02198500
O        2.43641000       0.92287000      10.82308000       0.04129100       0.06642000       0.03256400
O        2.31394000       2.76267000      12.59900000      -0.00808400      -0.04677700      -0.05442800
O        2.32823000       6.42905000      16.24479000      -0.02923500      -0.02622800      -0.04634800
O        0.96357000       6.86638000       9.21255000       0.13942600       0.07409600       0.20602800
O        4.97203000       3.24864000      11.04825000      -0.04085400       0.02897900       0.03660300
O        2.62973000       4.56366000      10.68740000       0.00640800       0.05308100       0.04186400
O        5.22400000       3.62205000      16.12680000      -0.06567100       0.02862200       0.07369900
O        0.52290000       4.74860000      13.51549000      -0.04453800      -0.00797400       0.01493900
O        4.60161000       2.37816000      13.60871000      -0.01118100       0.04440100      -0.00840700
O        4.81550000       1.11045000      17.29561000      -0.04925500       0.00622700       0.03480400
O        1.89273000       0.92509000      14.41179000      -0.02659400       0.00018800       0.02937600
O        2.38253000       2.55639000      16.43188000       0.02161000       0.00620700      -0.02180600
O        2.80343000       4.46152000      14.62176000       0.04014100       0.05622600       0.01717800
O        5.06617000       7.29223000      14.72532000       0.05907400      -0.01686100      -0.02658200
Zr       5.16086000       2.75127000      25.54886000      -0.06571500       0.08504400       0.00821400
Zr       1.80633000       0.71965000      27.71152000      -0.00830200       0.04146300       0.01810100
Zr       2.26393000       4.31543000      27.77207000       0.17562700      -0.01493900       0.18391200
Zr       5.52895000       6.73048000      25.80974000      -0.08617300      -0.08971400      -0.00885800
Zr       1.65908000       2.83000000      10.69893000       0.00830200      -0.04146300      -0.01810100
Zr       3.45055000       0.79837000      12.86158000       0.06571500      -0.08504400      -0.00821400
Zr       3.92276000       4.20929000      12.60070000       0.08617300       0.08971400       0.00885800
Zr       1.23640000       6.70727000      18.27391000      -0.00134800      -0.06586500      -0.06335200
Zr       3.07638000       0.51682000      16.31794000       0.05606000       0.01866000       0.10835400
Zr       3.45436000       4.54460000      16.68451000       0.06270800      -0.00151000       0.03102800
Zr       0.85134000       6.39517000      21.72594000      -0.06270800       0.00151000      -0.03102800
Zr       2.61835000       4.58907000      24.25008000       0.07359200      -0.02709600       0.01546900
Zr       2.25936000       0.58941000      23.85677000       0.01042500      -0.01645500      -0.05363700
Zr       0.38903000       3.03282000      22.09250000      -0.05606000      -0.01866000      -0.10835400
Zr       1.68736000       6.35070000      14.16036000      -0.07359200       0.02709600      -0.01546900
Zr       0.83055000       2.68438000      17.96766000      -0.02462700      -0.00900400       0.02258200
Zr       2.63486000       0.86527000      20.44278000       0.02462700       0.00900400      -0.02258200
Zr       3.06931000       4.23249000      20.13653000       0.00134800       0.06586500       0.06335200
Zr       1.20605000       2.96024000      14.55367000      -0.01042500       0.01645500       0.05363700
Zr       2.04178000       6.62434000      10.63837000      -0.17562700       0.01493900      -0.18391200
