60
Lattice="5.146 0.0 0.0 0.840294 7.390122 0.0 0.0 0.0 38.41044" Properties=species:S:1:pos:R:3:forces:R:3 energy=-566.84486522 stress="3.32283 3.81864 -1.62912 3.81864 2.83421 -3.66614 -1.62912 -3.66614 -4.61991" pbc="T T T"
O        4.21563000       3.62389000      18.53536000      -0.04819700      -0.00264600       0.11708900
O        4.63300000       6.12391000      17.30433000       0.04357700       0.01786200       0.03361900
O        4.81870000       4.81586000      21.10611000      -0.04357700      -0.01786200      -0.03361900
O        1.89793000       4.65569000      18.20616000       0.03064200      -0.00462800       0.05336700
O        2.40777000       6.28408000      20.20428000      -0.03064200       0.00462800      -0.05336700
O        1.97176000       0.79504000      18.37963000      -0.01758900      -0.02773200      -0.02952600
O        1.49366000       2.75461000      20.03082000       0.01758900       0.02773200       0.02952600
O        4.37464000       3.64340000      23.67775000       0.09183400      -0.03007900      -0.07952300
O        4.23724000       7.32239000      22.27909000      -0.06761500       0.02893500       0.01772100
O        3.80786000       2.44225000      21.10103000      -0.02974500       0.00218500      -0.04705600
O        1.15036000       0.78511000      25.81714000      -0.00715400       0.00017200      -0.14033100
O        4.00789000       1.16897000      24.80435000      -0.02842200      -0.01028300      -0.02724000
O        1.57158000       2.62687000      23.99527000      -0.01372700      -0.01817400      -0.04817500
O        1.98531000       4.51473000      22.16815000      -0.02524300      -0.04023600      -0.10724900
O        1.50071000       6.47809000      23.78531000       0.00874200       0.00392400      -0.02958100
O        3.64098000       0.29197000      27.36999000       0.03425900      -0.04661700      -0.07299200
O        3.47349000       3.73562000      26.16677000      -0.01548000      -0.00968600      -0.03079600
O        3.78701000       6.19544000      24.88761000      -0.04783600      -0.03431300      -0.04990000
O        3.31614000       4.00590000      29.19423000      -0.06437600      -0.04627600      -0.13480500
O        1.01462000       4.70611000      25.67461000      -0.02051800      -0.01353400       0.00011800
O        1.67402000       6.37302000      27.72851000       0.05821300      -0.04208600      -0.01996900
O        1.08843000       0.99650000      21.97838000      -0.00521500      -0.01749600      -0.03384100
O        5.23608000       7.31588000      19.87508000       0.04819700       0.00264600      -0.11708900
O        1.02861000       2.62040000      27.57471000      -0.07101300       0.10684800      -0.04943400
O       -0.00808000      -0.18597000      12.24367000       0.01548000       0.00968600       0.03079600
O        3.29109000       6.23365000      12.73584000       0.02051800       0.01353400      -0.00011800
O        2.43680000       0.92924000      10.83573000       0.07101300      -0.10684800       0.04943400
O        2.31505000       2.76453000      12.59330000       0.00715400      -0.00017200       0.14033100
O        2.32039000       6.42504000      16.24229000       0.02524300       0.04023600       0.10724900
O        0.98957000       6.93387000       9.21621000       0.06437600       0.04627600       0.13480500
O        4.97044000       3.25767000      11.04045000      -0.03425900       0.04661700       0.07299200
O        2.63169000       4.56675000      10.68193000      -0.05821300       0.04208600       0.01996900
O        5.21447000       3.61738000      16.13135000       0.06761500      -0.02893500      -0.01772100
O        0.51869000       4.74433000      13.52283000       0.04783600       0.03431300       0.04990000
O        4.60352000       2.38067000      13.60609000       0.02842200       0.01028300       0.02724000
O        4.80355000       1.10739000      17.30941000       0.02974500      -0.00218500       0.04705600
O        1.89383000       0.92278000      14.41517000       0.01372700       0.01817400       0.04817500
O        2.37698000       2.55314000      16.43206000       0.00521500       0.01749600       0.03384100
O        2.80499000       4.46168000      14.62514000      -0.00874200      -0.00392400       0.02958100
O        5.07707000       7.29637000      14.73269000      -0.09183400       0.03007900       0.07952300
Zr       5.15275000       2.75516000      25.53792000       0.06906300      -0.03564600       0.08667300
Zr       1.80842000       0.72005000      27.71086000      -0.08237500       0.00976500       0.07525800
Zr       2.26160000       4.31285000      27.76686000       0.04883900      -0.12490300       0.14459900
Zr       5.52193000       6.72577000      25.81207000       0.07250200       0.05972000       0.03673700
Zr       1.65699000       2.82960000      10.69959000       0.08237500      -0.00976500      -0.07525800
Zr       3.45866000       0.79449000      12.87252000      -0.06906300       0.03564600      -0.08667300
Zr       3.92978000       4.21400000      12.59837000      -0.07250200      -0.05972000      -0.03673700
Zr       1.23723000       6.69861000      18.27241000      -0.02512300       0.02536000       0.01287000
Zr       3.07401000       0.51696000      16.33313000      -0.01638400      -0.03932600      -0.12674900
Zr       3.45707000       4.54172000      16.68671000      -0.05983400       0.02145100      -0.06773700
Zr       0.84864000       6.39805000      21.72373000       0.05983400      -0.02145100       0.06773700
Zr       2.62469000       4.59096000      24.24960000      -0.08101800       0.01386500       0.01824900
Zr       2.25553000       0.59194000      23.85212000       0.01385300      -0.03010500       0.08022800
Zr       0.39140000       3.03269000      22.07731000       0.01638400       0.03932600       0.12674900
Zr       1.68102000       6.34881000      14.16084000       0.08101800      -0.01386500      -0.01824900
Zr       0.82349000       2.68141000      17.96808000       0.03587200       0.02963000       0.00588900
Zr       2.64193000       0.86824000      20.44236000      -0.03587200      -0.02963000      -0.00588900
Zr       3.06848000       4.24116000      20.13803000       0.02512300      -0.02536000      -0.01287000
Zr       1.20989000       2.95771000      14.55832000      -0.01385300       0.03010500      -0.08022800
Zr       2.04410000       6.62692000      10.64358000      -0.04883900       0.12490300      -0.14459900
