60
Lattice="5.146 0.0 0.0 0.840294 7.390122 0.0 0.0 0.0 38.41044" Properties=species:S:1:pos:R:3:forces:R:3 energy=-566.86403798 stress="2.98884 4.35723 -1.45085 4.35723 2.71258 -3.70704 -1.45085 -3.70704 -3.79815" pbc="T T T"
O        4.21013000       3.62524000      18.53728000       0.05170300      -0.02547800      -0.00700400
O        4.63294000       6.12386000      17.31256000      -0.06404700      -0.07757800      -0.06393900
O        4.81877000       4.81591000      21.09788000       0.06404700       0.07757800       0.06393900
O        1.89739000       4.65495000      18.21161000       0.02091800      -0.03345500      -0.03185300
O        2.40831000       6.28482000      20.19883000      -0.02091800       0.03345500       0.03185300
O        1.96818000       0.79326000      18.38067000       0.01265300       0.01084000      -0.03928000
O        1.49723000       2.75638000      20.02977000      -0.01265300      -0.01084000       0.03928000
O        4.37494000       3.63776000      23.66568000      -0.01137200       0.02787300       0.04737800
O        4.23669000       7.32933000      22.27882000       0.01203600      -0.02619200      -0.00975800
O        3.81675000       2.44528000      21.08282000      -0.04739900      -0.07944000       0.01959500
O        1.15023000       0.78519000      25.81202000       0.00052700      -0.03571300       0.00069800
O        4.00458000       1.16527000      24.80603000       0.02510300       0.03755200       0.02712400
O        1.56944000       2.62688000      23.98734000      -0.00316100      -0.00726200       0.04883200
O        1.98892000       4.51310000      22.15903000      -0.03965400       0.00023300      -0.00510900
O        1.49932000       6.47517000      23.78075000       0.00898500       0.01706900       0.02494200
O        3.63763000       0.27918000      27.36889000      -0.07907300      -0.01081400      -0.00623600
O        3.46498000       3.73870000      26.15644000       0.03914900      -0.05990700      -0.03280100
O        3.78656000       6.19243000      24.87569000       0.02787300      -0.00776300       0.02588000
O        3.29677000       3.93130000      29.18741000      -0.08761000      -0.03962100      -0.14656600
O        1.00517000       4.71078000      25.67003000       0.01635000      -0.05576000       0.01286200
O        1.68522000       6.36378000      27.73140000       0.04146800       0.06443400      -0.00136100
O        1.09048000       0.99552000      21.97604000      -0.02222400      -0.02170200      -0.02526700
O        5.24157000       7.31453000      19.87316000      -0.05170300       0.02547800       0.00700400
O        1.01427000       2.62828000      27.55784000      -0.09484700      -0.09109900      -0.04000600
O        0.00043000      -0.18906000      12.25400000      -0.03914900       0.05990700       0.03280100
O        3.30053000       6.22899000      12.74041000      -0.01635000       0.05576000      -0.01286200
O        2.45114000       0.92137000      10.85260000       0.09484700       0.09109900       0.04000600
O        2.31519000       2.76445000      12.59842000      -0.00052700       0.03571300      -0.00069800
O        2.31679000       6.42667000      16.25141000       0.03965400      -0.00023300       0.00510900
O        1.00893000       7.00847000       9.22303000       0.08761000       0.03962100       0.14656600
O        4.97378000       3.27047000      11.04155000       0.07907300       0.01081400       0.00623600
O        2.62049000       4.57599000      10.67904000      -0.04146800      -0.06443400       0.00136100
O        5.21502000       3.61043000      16.13162000      -0.01203600       0.02619200       0.00975800
O        0.51915000       4.74733000      13.53475000      -0.02787300       0.00776300      -0.02588000
O        4.60683000       2.38437000      13.60441000      -0.02510300      -0.03755200      -0.02712400
O        4.79467000       1.10437000      17.32762000       0.04739900       0.07944000      -0.01959500
O        1.89598000       0.92276000      14.42310000       0.00316100       0.00726200      -0.04883200
O        2.37493000       2.55412000      16.43440000       0.02222400       0.02170200       0.02526700
O        2.80638000       4.46460000      14.62969000      -0.00898500      -0.01706900      -0.02494200
O        5.07676000       7.30201000      14.74476000       0.01137200      -0.02787300      -0.04737800
Zr       5.15506000       2.75407000      25.53316000      -0.04422700       0.01938200      -0.02378400
Zr       1.80280000       0.71748000      27.71108000       0.02981000       0.07913500      -0.00644300
Zr       2.25607000       4.29741000      27.76086000       0.13409300      -0.07584400       0.14509800
Zr       5.52315000       6.72766000      25.81167000      -0.05588900      -0.02030400      -0.09320200
Zr       1.66261000       2.83217000      10.69936000      -0.02981000      -0.07913500       0.00644300
Zr       3.45636000       0.79558000      12.87728000       0.04422700      -0.01938200       0.02378400
Zr       3.92856000       4.21210000      12.59877000       0.05588900       0.02030400       0.09320200
Zr       1.23498000       6.69563000      18.27460000       0.00357900       0.06104500       0.03845200
Zr       3.07190000       0.51446000      16.33692000       0.02514300       0.02679700       0.01435200
Zr       3.45259000       4.54167000      16.68617000       0.03795600       0.00294700       0.07950800
Zr       0.85312000       6.39810000      21.72427000      -0.03795600      -0.00294700      -0.07950800
Zr       2.62041000       4.59216000      24.24509000       0.00887600      -0.03755700      -0.04441900
Zr       2.25549000       0.58962000      23.85034000       0.02095600      -0.01832600      -0.05176600
Zr       0.39352000       3.03519000      22.07353000      -0.02514300      -0.02679700      -0.01435200
Zr       1.68530000       6.34761000      14.16535000      -0.00887600       0.03755700       0.04441900
Zr       0.82312000       2.68204000      17.97423000      -0.02735000      -0.01471100      -0.02280400
Zr       2.64229000       0.86760000      20.43621000       0.02735000       0.01471100       0.02280400
Zr       3.07073000       4.24414000      20.13584000      -0.00357900      -0.06104500      -0.03845200
Zr       1.20992000       2.96003000      14.56010000      -0.02095600       0.01832600       0.05176600
Zr       2.04963000       6.64236000      10.64958000      -0.13409300       0.07584400      -0.14509800
