60
Lattice="5.146 0.0 0.0 0.840294 7.390122 0.0 0.0 0.0 38.41044" Properties=species:S:1:pos:R:3:forces:R:3 energy=-566.8943965 stress="4.63735 4.39502 -1.16428 4.39502 2.44335 -3.72722 -1.16428 -3.72722 -1.8175" pbc="T T T"
O        4.21331000       3.62312000      18.53823000       0.01040300       0.01706100       0.02382000
O        4.62721000       6.11477000      17.31611000       0.08821600       0.08071400      -0.00135600
O        4.82449000       4.82500000      21.09433000      -0.08821600      -0.08071400       0.00135600
O        1.89826000       4.64980000      18.21531000      -0.00435300       0.03421300       0.00969200
O        2.40745000       6.28997000      20.19513000       0.00435300      -0.03421300      -0.00969200
O        1.96654000       0.79357000      18.37690000       0.02544800       0.01474200       0.01678400
O        1.49887000       2.75607000      20.03354000      -0.02544800      -0.01474200      -0.01678400
O        4.36992000       3.63547000      23.65195000      -0.00991000       0.01325900       0.00947500
O        4.24158000       7.33447000      22.27278000      -0.03270700       0.00590400       0.03056000
O        3.82503000       2.43854000      21.06078000       0.00474100       0.04216900       0.09853600
O        1.15039000       0.77596000      25.80352000      -0.00260600      -0.03063000       0.00673400
O        3.99986000       1.16527000      24.81002000      -0.02897400      -0.02390500      -0.03660900
O        1.56685000       2.62523000      23.98115000       0.00133300      -0.02722900      -0.00311300
O        1.98867000       4.51031000      22.14604000      -0.00156200      -0.01379500       0.05694200
O        1.49919000       6.47354000      23.77469000       0.00335900       0.00310400      -0.01000400
O        3.62196000       0.25474000      27.36492000       0.06671900      -0.02138700      -0.04154300
O        3.45596000       3.73269000      26.13665000      -0.02906600      -0.02224100       0.06446400
O        3.78966000       6.18588000      24.85839000       0.02057100       0.00815500       0.00458000
O        3.25978000       3.78890000      29.16813000      -0.06811800      -0.06678600      -0.09010800
O        0.99730000       4.70747000      25.66261000       0.05155400       0.01303700       0.01755300
O        1.71081000       6.35807000      27.73892000      -0.01665700      -0.02721200       0.02895200
O        1.08975000       0.99241000      21.96666000      -0.00268600       0.01523300       0.04056700
O        5.23840000       7.31665000      19.87221000      -0.01040300      -0.01706100      -0.02382000
O        0.97450000       2.62650000      27.52462000       0.01779200       0.04122300       0.01091800
O        0.00945000      -0.18304000      12.27379000       0.02906600       0.02224100      -0.06446400
O        3.30840000       6.23230000      12.74783000      -0.05155400      -0.01303700      -0.01755300
O        2.49091000       0.92314000      10.88582000      -0.01779200      -0.04122300      -0.01091800
O        2.31502000       2.77368000      12.60692000       0.00260600       0.03063000      -0.00673400
O        2.31704000       6.42946000      16.26440000       0.00156200       0.01379500      -0.05694200
O        1.04593000       7.15086000       9.24231000       0.06811800       0.06678600       0.09010800
O        4.98945000       3.29490000      11.04552000      -0.06671900       0.02138700       0.04154300
O        2.59489000       4.58170000      10.67152000       0.01665700       0.02721200      -0.02895200
O        5.21012000       3.60530000      16.13766000       0.03270700      -0.00590400      -0.03056000
O        0.51605000       4.75389000      13.55205000      -0.02057100      -0.00815500      -0.00458000
O        4.61155000       2.38438000      13.60042000       0.02897400       0.02390500       0.03660900
O        4.78638000       1.11110000      17.34966000      -0.00474100      -0.04216900      -0.09853600
O        1.89856000       0.92441000      14.42929000      -0.00133300       0.02722900       0.00311300
O        2.37566000       2.55723000      16.44378000       0.00268600      -0.01523300      -0.04056700
O        2.80652000       4.46623000      14.63575000      -0.00335900      -0.00310400       0.01000400
O        5.08179000       7.30430000      14.75849000       0.00991000      -0.01325900      -0.00947500
Zr       5.15155000       2.75281000      25.52153000      -0.00213900      -0.02506500      -0.00386400
Zr       1.79762000       0.72374000      27.70757000       0.00855300      -0.01208200      -0.00267700
Zr       2.25403000       4.27007000      27.75127000      -0.01576200       0.01124800      -0.01839900
Zr       5.51753000       6.72607000      25.79956000       0.00410000      -0.06363400       0.01293100
Zr       1.66780000       2.82590000      10.70287000      -0.00855300       0.01208200       0.00267700
Zr       3.45986000       0.79684000      12.88891000       0.00213900       0.02506500       0.00386400
Zr       3.93418000       4.21370000      12.61088000      -0.00410000       0.06363400      -0.01293100
Zr       1.23401000       6.69881000      18.28159000      -0.00483900      -0.02261000      -0.04349900
Zr       3.07174000       0.51680000      16.34481000       0.01749500      -0.02009600       0.02935700
Zr       3.45123000       4.54040000      16.69576000       0.01663500       0.01621600      -0.01057700
Zr       0.85448000       6.39937000      21.71468000      -0.01663500      -0.01621600       0.01057700
Zr       2.61511000       4.58700000      24.23321000       0.01212200       0.01369600      -0.02005600
Zr       2.25611000       0.58539000      23.84356000      -0.02002700      -0.02222000      -0.03409700
Zr       0.39367000       3.03284000      22.06563000      -0.01749500       0.02009600      -0.02935700
Zr       1.69060000       6.35277000      14.17723000      -0.01212200      -0.01369600       0.02005600
Zr       0.82159000       2.68062000      17.97690000       0.03549900       0.00874400      -0.00338700
Zr       2.64382000       0.86902000      20.43354000      -0.03549900      -0.00874400       0.00338700
Zr       3.07170000       4.24096000      20.12885000       0.00483900       0.02261000       0.04349900
Zr       1.20930000       2.96426000      14.56688000       0.02002700       0.02222000       0.03409700
Zr       2.05168000       6.66970000      10.65917000       0.01576200      -0.01124800       0.01839900
