60
Lattice="5.146 0.0 0.0 0.840294 7.390122 0.0 0.0 0.0 38.41044" Properties=species:S:1:pos:R:3:forces:R:3 energy=-566.90027636 stress="4.5016 4.50889 -1.11001 4.50889 2.14238 -3.70956 -1.11001 -3.70956 -1.25358" pbc="T T T"
O        4.21598000       3.62266000      18.53938000      -0.02055500       0.03300200       0.01709300
O        4.63073000       6.11633000      17.31747000       0.01834000       0.02853200      -0.03242600
O        4.82098000       4.82344000      21.09297000      -0.01834000      -0.02853200       0.03242600
O        1.89796000       4.65019000      18.21699000       0.01174400       0.01255600      -0.01173900
O        2.40774000       6.28958000      20.19345000      -0.01174400      -0.01255600       0.01173900
O        1.96766000       0.79445000      18.37652000       0.00820800       0.01081300       0.01322100
O        1.49775000       2.75520000      20.03392000      -0.00820800      -0.01081300      -0.01322100
O        4.36693000       3.63672000      23.64760000       0.02974500      -0.02390300       0.05576400
O        4.24367000       7.33483000      22.27001000      -0.08599500       0.02969900       0.09154200
O        3.82846000       2.43878000      21.05926000      -0.05632900       0.00534500       0.08671500
O        1.15043000       0.77146000      25.79985000      -0.00340100      -0.00993100       0.08374800
O        3.99613000       1.16473000      24.80842000       0.02633100      -0.02651500       0.00938700
O        1.56717000       2.62421000      23.97850000      -0.03249400      -0.04309600       0.03589600
O        1.98867000       4.50885000      22.14494000      -0.01627400      -0.00237000       0.04873700
O        1.49956000       6.47278000      23.77166000      -0.00758000       0.01955500       0.01921800
O        3.62060000       0.24683000      27.36112000       0.01954300       0.00416600       0.00679700
O        3.45139000       3.73037000      26.13363000       0.01992700      -0.04191100       0.07403800
O        3.78969000       6.18326000      24.85253000       0.07625500       0.04343800       0.05619200
O        3.24744000       3.74756000      29.15932000      -0.03564300      -0.08947300      -0.02255600
O        0.99888000       4.70555000      25.66036000       0.00316300       0.05095000       0.05200000
O        1.71757000       6.35423000      27.74183000      -0.02244700       0.03511900       0.04927300
O        1.08897000       0.99289000      21.96428000       0.00544400      -0.01828000       0.07881600
O        5.23573000       7.31710000      19.87106000       0.02055500      -0.03300200      -0.01709300
O        0.96297000       2.62883000      27.51606000       0.05581600      -0.02517100       0.02521700
O        0.01402000      -0.18073000      12.27681000      -0.01992700       0.04191100      -0.07403800
O        3.30683000       6.23422000      12.75008000      -0.00316300      -0.05095000      -0.05200000
O        2.50244000       0.92082000      10.89438000      -0.05581600       0.02517100      -0.02521700
O        2.31498000       2.77818000      12.61059000       0.00340100       0.00993100      -0.08374800
O        2.31703000       6.43092000      16.26550000       0.01627400       0.00237000      -0.04873700
O        1.05826000       7.19221000       9.25112000       0.03564300       0.08947300       0.02255600
O        4.99082000       3.30282000      11.04932000      -0.01954300      -0.00416600      -0.00679700
O        2.58813000       4.58554000      10.66861000       0.02244700      -0.03511900      -0.04927300
O        5.20804000       3.60493000      16.14043000       0.08599500      -0.02969900      -0.09154200
O        0.51601000       4.75650000      13.55791000      -0.07625500      -0.04343800      -0.05619200
O        4.61528000       2.38492000      13.60202000      -0.02633100       0.02651500      -0.00938700
O        4.78295000       1.11087000      17.35118000       0.05632900      -0.00534500      -0.08671500
O        1.89824000       0.92544000      14.43194000       0.03249400       0.04309600      -0.03589600
O        2.37644000       2.55675000      16.44616000      -0.00544400       0.01828000      -0.07881600
O        2.80614000       4.46699000      14.63878000       0.00758000      -0.01955500      -0.01921800
O        5.08478000       7.30305000      14.76285000      -0.02974500       0.02390300      -0.05576400
Zr       5.15132000       2.74890000      25.51934000      -0.04410800       0.06416400      -0.05735700
Zr       1.79630000       0.72363000      27.70655000       0.04111800       0.02852100      -0.03809000
Zr       2.25316000       4.26531000      27.74814000      -0.06716000      -0.03142700      -0.11007300
Zr       5.51735000       6.72605000      25.79979000      -0.04394400      -0.17135500      -0.10899400
Zr       1.66911000       2.82602000      10.70389000      -0.04111800      -0.02852100       0.03809000
Zr       3.46009000       0.80074000      12.89110000       0.04410800      -0.06416400       0.05735700
Zr       3.93436000       4.21372000      12.61065000       0.04394400       0.17135500       0.10899400
Zr       1.23477000       6.69834000      18.28136000      -0.04325200       0.01090700      -0.02905200
Zr       3.07154000       0.51824000      16.34667000       0.05291000      -0.06170800       0.06687600
Zr       3.45031000       4.53939000      16.69661000       0.07524800       0.05855200       0.04197800
Zr       0.85539000       6.40037000      21.71383000      -0.07524800      -0.05855200      -0.04197800
Zr       2.61391000       4.58519000      24.23029000       0.02708500       0.03577000      -0.05001300
Zr       2.25484000       0.58531000      23.84416000       0.00293300      -0.08101700      -0.15590300
Zr       0.39388000       3.03140000      22.06377000      -0.05291000       0.06170800      -0.06687600
Zr       1.69180000       6.35458000      14.18015000      -0.02708500      -0.03577000       0.05001300
Zr       0.82469000       2.68078000      17.97620000      -0.04675200      -0.00842300       0.02825000
Zr       2.64072000       0.86887000      20.43424000       0.04675200       0.00842300      -0.02825000
Zr       3.07093000       4.24143000      20.12908000       0.04325200      -0.01090700       0.02905200
Zr       1.21057000       2.96434000      14.56628000      -0.00293300       0.08101700       0.15590300
Zr       2.05254000       6.67446000      10.66230000       0.06716000       0.03142700       0.11007300
