60
Lattice="5.146 0.0 0.0 0.840294 7.390122 0.0 0.0 0.0 38.41044" Properties=species:S:1:pos:R:3:forces:R:3 energy=-566.91818225 stress="4.843 4.60594 -1.29495 4.60594 1.66231 -3.37566 -1.29495 -3.37566 0.11312" pbc="T T T"
O        4.22094000       3.62380000      18.54328000      -0.05252000       0.04749700      -0.01664400
O        4.64030000       6.12194000      17.31853000      -0.11873000      -0.12795100      -0.05513000
O        4.81140000       4.81782000      21.09191000       0.11873000       0.12795100       0.05513000
O        1.89806000       4.65195000      18.22019000       0.03882400      -0.03027200      -0.05074300
O        2.40765000       6.28781000      20.19026000      -0.03882400       0.03027200       0.05074300
O        1.97089000       0.79725000      18.37650000      -0.03934200      -0.01439000       0.01240600
O        1.49452000       2.75239000      20.03394000       0.03934200       0.01439000      -0.01240600
O        4.36182000       3.63809000      23.64100000       0.09879100      -0.03716600       0.01324900
O        4.24284000       7.33770000      22.26958000       0.00004200      -0.03956700      -0.05641200
O        3.83282000       2.43970000      21.06149000      -0.21608500      -0.08823100      -0.01605700
O        1.15030000       0.76010000      25.79678000      -0.03683100       0.01435100       0.02356500
O        3.98904000       1.16165000      24.80526000       0.07067300      -0.01467900      -0.01020500
O        1.56574000       2.61886000      23.97463000      -0.06097800       0.00693200      -0.00757200
O        1.98760000       4.50523000      22.14562000      -0.05523200       0.05255000      -0.09350600
O        1.49995000       6.47228000      23.76574000      -0.03895700      -0.02511900      -0.06169100
O        3.61867000       0.22830000      27.35257000      -0.01997800       0.00658700       0.00594800
O        3.44187000       3.72206000      26.13144000       0.13602500      -0.02774800      -0.10081500
O        3.79490000       6.17997000      24.84238000      -0.02977800      -0.04161100      -0.01380600
O        3.21575000       3.64333000      29.13686000      -0.15102800      -0.03930100      -0.16759600
O        1.00283000       4.70442000      25.65850000      -0.03182400       0.02858000      -0.00067600
O        1.73212000       6.34748000      27.75206000      -0.02923000       0.08510800       0.04370400
O        1.08749000       0.99280000      21.96393000      -0.01280900      -0.07419200      -0.01753400
O        5.23076000       7.31597000      19.86716000       0.05252000      -0.04749700       0.01664400
O        0.93934000       2.63266000      27.49741000       0.06281300      -0.08486600      -0.04395000
O        0.02355000      -0.17242000      12.27900000      -0.13602500       0.02774800       0.10081500
O        3.30287000       6.23534000      12.75194000       0.03182400      -0.02858000       0.00067600
O        2.52608000       0.91699000      10.91303000      -0.06281300       0.08486600       0.04395000
O        2.31512000       2.78954000      12.61366000       0.03683100      -0.01435100      -0.02356500
O        2.31811000       6.43454000      16.26482000       0.05523200      -0.05255000       0.09350600
O        1.08995000       7.29644000       9.27358000       0.15102800       0.03930100       0.16759600
O        4.99275000       3.32134000      11.05788000       0.01997800      -0.00658700      -0.00594800
O        2.57359000       4.59228000      10.65838000       0.02923000      -0.08510800      -0.04370400
O        5.20886000       3.60206000      16.14086000      -0.00004200       0.03956700       0.05641200
O        0.51080000       4.75979000      13.56806000       0.02977800       0.04161100       0.01380600
O        4.62238000       2.38800000      13.60518000      -0.07067300       0.01467900       0.01020500
O        4.77859000       1.10994000      17.34895000       0.21608500       0.08823100       0.01605700
O        1.89967000       0.93079000      14.43582000       0.06097800      -0.00693200       0.00757200
O        2.37793000       2.55685000      16.44651000       0.01280900       0.07419200       0.01753400
O        2.80575000       4.46749000      14.64470000       0.03895700       0.02511900       0.06169100
O        5.08989000       7.30167000      14.76945000      -0.09879100       0.03716600      -0.01324900
Zr       5.14781000       2.74395000      25.51027000      -0.08229300      -0.01636700       0.04009300
Zr       1.79594000       0.72526000      27.70156000       0.09976000       0.03934800       0.01872900
Zr       2.24658000       4.25190000      27.73332000       0.00116500      -0.13245400       0.18153400
Zr       5.51395000       6.71446000      25.79299000       0.00710800       0.01274900       0.01636100
Zr       1.66948000       2.82438000      10.70888000      -0.09976000      -0.03934800      -0.01872900
Zr       3.46361000       0.80569000      12.90017000       0.08229300       0.01636700      -0.04009300
Zr       3.93775000       4.22531000      12.61745000      -0.00710800      -0.01274900      -0.01636100
Zr       1.23368000       6.69797000      18.27886000       0.01698600       0.05908700       0.00798500
Zr       3.07461000       0.51750000      16.35559000       0.00151600       0.01350700      -0.15045400
Zr       3.45321000       4.54096000      16.70146000       0.09154500       0.02989800      -0.02383100
Zr       0.85250000       6.39881000      21.70898000      -0.09154500      -0.02989800       0.02383100
Zr       2.61288000       4.58332000      24.22001000       0.03190300       0.00713100       0.12235500
Zr       2.25203000       0.57968000      23.83510000      -0.00764700       0.02567500       0.09093500
Zr       0.39080000       3.03214000      22.05485000      -0.00151600      -0.01350700       0.15045400
Zr       1.69282000       6.35645000      14.19043000      -0.03190300      -0.00713100      -0.12235500
Zr       0.82890000       2.68058000      17.97644000      -0.09823400      -0.02904500      -0.01142700
Zr       2.63651000       0.86907000      20.43400000       0.09823400       0.02904500       0.01142700
Zr       3.07203000       4.24180000      20.13158000      -0.01698600      -0.05908700      -0.00798500
Zr       1.21338000       2.96997000      14.57534000       0.00764700      -0.02567500      -0.09093500
Zr       2.05913000       6.68787000      10.67712000      -0.00116500       0.13245400      -0.18153400
