60
Lattice="5.146 0.0 0.0 0.840294 7.390122 0.0 0.0 0.0 38.41044" Properties=species:S:1:pos:R:3:forces:R:3 energy=-566.92413966 stress="5.13354 4.52485 -1.19983 4.52485 1.62954 -3.3732 -1.19983 -3.3732 0.51134" pbc="T T T"
O        4.22152000       3.62437000      18.54391000      -0.05171600       0.04457100      -0.01769100
O        4.64129000       6.12208000      17.31832000      -0.12074900      -0.12584300      -0.05482700
O        4.81042000       4.81768000      21.09212000       0.12074900       0.12584300       0.05482700
O        1.89837000       4.65207000      18.22043000       0.03978400      -0.02976700      -0.05272100
O        2.40734000       6.28770000      20.19001000      -0.03978400       0.02976700       0.05272100
O        1.97123000       0.79769000      18.37659000      -0.03872500      -0.01853000       0.01032100
O        1.49418000       2.75195000      20.03385000       0.03872500       0.01853000      -0.01032100
O        4.36156000       3.63808000      23.63980000       0.09457300      -0.03432500       0.01613400
O        4.24268000       7.33797000      22.26908000       0.00227700      -0.04315700      -0.06069200
O        3.83205000       2.43922000      21.06181000      -0.20988500      -0.08262500      -0.01765100
O        1.14999000       0.75799000      25.79636000      -0.03736700       0.01578600       0.01617400
O        3.98818000       1.16094000      24.80456000       0.07259700      -0.01524100      -0.01063900
O        1.56501000       2.61787000      23.97381000      -0.05848900       0.01550100      -0.00744900
O        1.98697000       4.50492000      22.14505000      -0.05414600       0.05021600      -0.09362700
O        1.49974000       6.47199000      23.76412000      -0.03853100      -0.03358200      -0.05329100
O        3.61814000       0.22473000      27.35094000      -0.01640800       0.00743900       0.00771400
O        3.44102000       3.72023000      26.13026000       0.13030300      -0.01638700      -0.10453000
O        3.79570000       6.17902000      24.84029000      -0.04332900      -0.05046100      -0.01899000
O        3.20842000       3.62264000      29.13121000      -0.13131200      -0.05539200      -0.13552300
O        1.00337000       4.70442000      25.65813000      -0.03298200       0.02090300      -0.00273100
O        1.73475000       6.34680000      27.75439000      -0.02428900       0.08089100       0.04803500
O        1.08710000       0.99223000      21.96373000      -0.01542600      -0.06884800      -0.02417400
O        5.23018000       7.31539000      19.86653000       0.05171600      -0.04457100       0.01769100
O        0.93518000       2.63277000      27.49343000       0.06297600      -0.08597400      -0.04443500
O        0.02439000      -0.17058000      12.28019000      -0.13030300       0.01638700       0.10453000
O        3.30234000       6.23535000      12.75231000       0.03298200      -0.02090300       0.00273100
O        2.53023000       0.91688000      10.91701000      -0.06297600       0.08597400       0.04443500
O        2.31542000       2.79166000      12.61408000       0.03736700      -0.01578600      -0.01617400
O        2.31873000       6.43485000      16.26539000       0.05414600      -0.05021600       0.09362700
O        1.09729000       7.31713000       9.27923000       0.13131200       0.05539200       0.13552300
O        4.99327000       3.32492000      11.05950000       0.01640800      -0.00743900      -0.00771400
O        2.57096000       4.59297000      10.65605000       0.02428900      -0.08089100      -0.04803500
O        5.20902000       3.60180000      16.14136000      -0.00227700       0.04315700       0.06069200
O        0.51001000       4.76075000      13.57015000       0.04332900       0.05046100       0.01899000
O        4.62323000       2.38871000      13.60588000      -0.07259700       0.01524100       0.01063900
O        4.77936000       1.11043000      17.34863000       0.20988500       0.08262500       0.01765100
O        1.90041000       0.93178000      14.43663000       0.05848900      -0.01550100       0.00744900
O        2.37831000       2.55742000      16.44671000       0.01542600       0.06884800       0.02417400
O        2.80597000       4.46778000      14.64632000       0.03853100       0.03358200       0.05329100
O        5.09015000       7.30168000      14.77064000      -0.09457300       0.03432500      -0.01613400
Zr       5.14650000       2.74286000      25.50880000      -0.07182200      -0.03319700       0.03976900
Zr       1.79661000       0.72588000      27.70072000       0.09273100       0.02819800       0.02632600
Zr       2.24530000       4.24828000      27.73178000      -0.02257000      -0.10964300       0.15208900
Zr       5.51334000       6.71229000      25.79178000       0.02246000       0.04212900       0.02903800
Zr       1.66880000       2.82377000      10.70972000      -0.09273100      -0.02819800      -0.02632600
Zr       3.46491000       0.80679000      12.90164000       0.07182200       0.03319700      -0.03976900
Zr       3.93836000       4.22748000      12.61866000      -0.02246000      -0.04212900      -0.02903800
Zr       1.23359000       6.69834000      18.27843000       0.03527100       0.05041000       0.02061200
Zr       3.07523000       0.51746000      16.35620000      -0.01281700       0.03013800      -0.15569500
Zr       3.45446000       4.54149000      16.70223000       0.07271100       0.02039100      -0.02198900
Zr       0.85124000       6.39828000      21.70821000      -0.07271100      -0.02039100       0.02198900
Zr       2.61292000       4.58301000      24.21892000       0.02245700       0.00321700       0.12253400
Zr       2.25142000       0.57877000      23.83401000      -0.01413900       0.03655300       0.10200300
Zr       0.39018000       3.03218000      22.05424000       0.01281700      -0.03013800       0.15569500
Zr       1.69279000       6.35676000      14.19152000      -0.02245700      -0.00321700      -0.12253400
Zr       0.82899000       2.68032000      17.97641000      -0.08548800      -0.01824700      -0.00933800
Zr       2.63642000       0.86933000      20.43403000       0.08548800       0.01824700       0.00933800
Zr       3.07212000       4.24143000      20.13201000      -0.03527100      -0.05041000      -0.02061200
Zr       1.21399000       2.97088000      14.57643000       0.01413900      -0.03655300      -0.10200300
Zr       2.06041000       6.69149000      10.67866000       0.02257000       0.10964300      -0.15208900
