60
Lattice="5.146 0.0 0.0 0.840294 7.390122 0.0 0.0 0.0 38.41044" Properties=species:S:1:pos:R:3:forces:R:3 energy=-567.05276195 stress="11.10883 2.91636 -0.67269 2.91636 -1.99919 -2.06053 -0.67269 -2.06053 6.26933" pbc="T T T"
O        4.23683000       3.63968000      18.56079000      -0.02678200      -0.03233100      -0.04065300
O        4.66736000       6.12578000      17.31284000      -0.18932500      -0.07246800      -0.06645700
O        4.78435000       4.81399000      21.09760000       0.18932500       0.07246800       0.06645700
O        1.90658000       4.65520000      18.22692000       0.06376100      -0.02378800      -0.10247200
O        2.39913000       6.28457000      20.18352000      -0.06376100       0.02378800       0.10247200
O        1.98016000       0.80939000      18.37900000      -0.01412400      -0.12639100      -0.05018200
O        1.48525000       2.74026000      20.03145000       0.01412400       0.12639100       0.05018200
O        4.35469000       3.63781000      23.60820000      -0.02947100       0.05234800       0.12343400
O        4.23840000       7.34499000      22.25566000       0.06424800      -0.13393100      -0.16590200
O        3.81172000       2.42646000      21.07018000      -0.03622400       0.08346600      -0.04267600
O        1.14198000       0.70193000      25.78512000      -0.06566000       0.07981000      -0.20740600
O        3.96543000       1.14206000      24.78612000       0.11259200      -0.01048900      -0.04496900
O        1.54548000       2.59152000      23.95220000       0.00389300       0.24971100      -0.00704600
O        1.97041000       4.49660000      22.12995000      -0.02487000      -0.01206100      -0.07600100
O        1.49401000       6.46441000      23.72117000      -0.02459000      -0.27222600       0.16298900
O        3.60416000       0.12998000      27.30774000       0.07006900      -0.02412300      -0.04429600
O        3.41866000       3.67161000      26.09885000      -0.17822900       0.37705100       0.01930100
O        3.81680000       6.15368000      24.78490000      -0.42478100      -0.32461100      -0.19306400
O        3.01405000       3.07426000      28.98145000      -0.62698700       0.10219300      -0.76916000
O        1.01756000       4.70426000      25.64838000       0.07641400      -0.30831400       0.12551900
O        1.80438000       6.32872000      27.81611000       0.05433200      -0.30808900       0.11181300
O        1.07684000       0.97701000      21.95843000      -0.07313000       0.07916700      -0.19828300
O        5.21488000       7.30008000      19.84965000       0.02678200       0.03233100       0.04065300
O        0.82509000       2.63576000      27.38799000       0.13347700       0.14597200       0.06178100
O        0.04676000      -0.12196000      12.31159000       0.17822900      -0.37705100      -0.01930100
O        3.28815000       6.23551000      12.76206000      -0.07641400       0.30831400      -0.12551900
O        2.64032000       0.91389000      11.02246000      -0.13347700      -0.14597200      -0.06178100
O        2.32344000       2.84771000      12.62533000       0.06566000      -0.07981000       0.20740600
O        2.33529000       6.44317000      16.28049000       0.02487000       0.01206100       0.07600100
O        0.45137000       0.47538000       9.42899000       0.62698700      -0.10219300       0.76916000
O        5.00725000       3.41967000      11.10270000      -0.07006900       0.02412300       0.04429600
O        2.50133000       4.61105000      10.59434000      -0.05433200       0.30808900      -0.11181300
O        5.21330000       3.59478000      16.15478000      -0.06424800       0.13393100       0.16590200
O        0.48891000       4.78609000      13.62554000       0.42478100       0.32461100       0.19306400
O        4.64598000       2.40758000      13.62432000      -0.11259200       0.01048900       0.04496900
O        4.79969000       1.12319000      17.34026000       0.03622400      -0.08346600       0.04267600
O        1.91994000       0.95813000      14.45824000      -0.00389300      -0.24971100       0.00704600
O        2.38857000       2.57264000      16.45201000       0.07313000      -0.07916700       0.19828300
O        2.81169000       4.47536000      14.68927000       0.02459000       0.27222600      -0.16298900
O        5.09701000       7.30196000      14.80224000       0.02947100      -0.05234800      -0.12343400
Zr       5.11192000       2.71392000      25.46975000       0.18167200      -0.57136400      -0.18888100
Zr       1.81456000       0.74220000      27.67858000       0.28338100      -0.03154900       0.49245700
Zr       2.21139000       4.15241000      27.69099000       0.16743800      -0.33406300       0.44278700
Zr       5.49716000       6.65471000      25.75977000       0.33780800       0.99165000       0.39320500
Zr       1.65085000       2.80745000      10.73186000      -0.28338100       0.03154900      -0.49245700
Zr       3.49949000       0.83572000      12.94069000      -0.18167200       0.57136400       0.18888100
Zr       3.95454000       4.28505000      12.65067000      -0.33780800      -0.99165000      -0.39320500
Zr       1.23127000       6.70816000      18.26703000       0.53732900      -0.17251900       0.38343500
Zr       3.09150000       0.51632000      16.37255000      -0.39487000       0.48839300      -0.25841100
Zr       3.48768000       4.55554000      16.72264000      -0.42727600      -0.24014300       0.03201700
Zr       0.81802000       6.38423000      21.68781000       0.42727600       0.24014300      -0.03201700
Zr       2.61393000       4.57470000      24.18992000      -0.20712500      -0.08056400       0.03526200
Zr       2.23530000       0.55465000      23.80508000      -0.19227700       0.32334900       0.40674500
Zr       0.37392000       3.03333000      22.03789000       0.39487000      -0.48839300       0.25841100
Zr       1.69178000       6.36506000      14.22052000       0.20712500       0.08056400      -0.03526200
Zr       0.83130000       2.67351000      17.97541000       0.25627000       0.28282000       0.06071600
Zr       2.63411000       0.87614000      20.43504000      -0.25627000      -0.28282000      -0.06071600
Zr       3.07444000       4.23160000      20.14341000      -0.53732900       0.17251900      -0.38343500
Zr       1.23012000       2.99500000      14.60537000       0.19227700      -0.32334900      -0.40674500
Zr       2.09431000       6.78736000      10.71945000      -0.16743800       0.33406300      -0.44278700
