60
Lattice="5.146 0.0 0.0 0.840294 7.390122 0.0 0.0 0.0 38.41044" Properties=species:S:1:pos:R:3:forces:R:3 energy=-567.10292054 stress="13.45831 2.33843 -0.51598 2.33843 -4.86994 -0.99174 -0.51598 -0.99174 8.13388" pbc="T T T"
O        4.24347000       3.64627000      18.56807000      -0.01987900      -0.06485200      -0.04501100
O        4.67827000       6.12725000      17.31027000      -0.21302400      -0.03899500      -0.06924300
O        4.77344000       4.81252000      21.10017000       0.21302400       0.03899500       0.06924300
O        1.91033000       4.65652000      18.22949000       0.07069100      -0.02353000      -0.11672000
O        2.39538000       6.28325000      20.18095000      -0.07069100       0.02353000       0.11672000
O        1.98404000       0.81415000      18.37990000      -0.00092700      -0.16910000      -0.07453600
O        1.48137000       2.73549000      20.03054000       0.00092700       0.16910000       0.07453600
O        4.35156000       3.63785000      23.59473000      -0.08109400       0.07443500       0.18347100
O        4.23672000       7.34770000      22.24934000       0.07758800      -0.16129000      -0.19608100
O        3.80282000       2.42115000      21.07374000       0.03922300       0.15516500      -0.05055100
O        1.13828000       0.67765000      25.77957000      -0.09087100       0.14100200      -0.32653500
O        3.95576000       1.13379000      24.77794000       0.10748800      -0.00726300      -0.06404600
O        1.53697000       2.58070000      23.94272000       0.02366800       0.34053400      -0.00395800
O        1.96312000       4.49291000      22.12317000      -0.00728900      -0.04222600      -0.06428600
O        1.49146000       6.46033000      23.70286000      -0.01915900      -0.36898700       0.24807100
O        3.59828000       0.08843000      27.28869000       0.13340100      -0.06164500      -0.09606800
O        3.40824000       3.65144000      26.08531000      -0.38253200       0.55362300       0.20581400
O        3.82483000       6.14169000      24.76013000      -0.57258000      -0.41895500      -0.26431000
O        2.92709000       2.83505000      28.91343000      -1.01898800       0.48999300      -1.39244700
O        1.02405000       4.70324000      25.64453000       0.17774700      -0.50308200       0.26361800
O        1.83496000       6.31976000      27.84338000       0.04389000      -0.65174600       0.11453000
O        1.07215000       0.97060000      21.95555000      -0.09402100       0.13766600      -0.26299300
O        5.20824000       7.29349000      19.84237000       0.01987900       0.06485200       0.04501100
O        0.77735000       2.63762000      27.34217000       0.24698600       0.34141500       0.26631700
O        0.05717000      -0.10180000      12.32513000       0.38253200      -0.55362300      -0.20581400
O        3.28166000       6.23653000      12.76591000      -0.17774700       0.50308200      -0.26361800
O        2.68806000       0.91203000      11.06827000      -0.24698600      -0.34141500      -0.26631700
O        2.32713000       2.87200000      12.63087000       0.09087100      -0.14100200       0.32653500
O        2.34258000       6.44686000      16.28727000       0.00728900       0.04222600       0.06428600
O        0.53833000       0.71459000       9.49701000       1.01898800      -0.48999300       1.39244700
O        5.01314000       3.46121000      11.12175000      -0.13340100       0.06164500       0.09606800
O        2.47075000       4.62001000      10.56706000      -0.04389000       0.65174600      -0.11453000
O        5.21499000       3.59207000      16.16110000      -0.07758800       0.16129000       0.19608100
O        0.48088000       4.79808000      13.65031000       0.57258000       0.41895500       0.26431000
O        4.65566000       2.41585000      13.63250000      -0.10748800       0.00726300       0.06404600
O        4.80860000       1.12849000      17.33670000      -0.03922300      -0.15516500       0.05055100
O        1.92845000       0.96895000      14.46772000      -0.02366800      -0.34053400       0.00395800
O        2.39326000       2.57904000      16.45489000       0.09402100      -0.13766600       0.26299300
O        2.81424000       4.47944000      14.70758000       0.01915900       0.36898700      -0.24807100
O        5.10015000       7.30192000      14.81571000       0.08109400      -0.07443500      -0.18347100
Zr       5.09733000       2.69963000      25.45200000       0.26578800      -0.77599600      -0.43654100
Zr       1.82332000       0.74934000      27.67042000       0.53128200       0.05968200       0.84839100
Zr       2.19717000       4.10920000      27.67454000       0.31553200      -0.77802500       0.64344700
Zr       5.49099000       6.63240000      25.74691000       0.40887300       1.40428500       0.55184000
Zr       1.64209000       2.80030000      10.74002000      -0.53128200      -0.05968200      -0.84839100
Zr       3.51408000       0.85001000      12.95844000      -0.26578800       0.77599600       0.43654100
Zr       3.96071000       4.30737000      12.66353000      -0.40887300      -1.40428500      -0.55184000
Zr       1.23177000       6.71196000      18.26313000       0.70873600      -0.24762400       0.51480200
Zr       3.09750000       0.51719000      16.37905000      -0.52523700       0.64638200      -0.26856900
Zr       3.50097000       4.56099000      16.73166000      -0.60702000      -0.33188600       0.04277100
Zr       0.80473000       6.37878000      21.67878000       0.60702000       0.33188600      -0.04277100
Zr       2.61378000       4.57086000      24.17726000      -0.29286400      -0.07540800      -0.02689100
Zr       2.22770000       0.54500000      23.79355000      -0.25711500       0.39769300       0.53160800
Zr       0.36791000       3.03246000      22.03139000       0.52523700      -0.64638200       0.26856900
Zr       1.69192000       6.36891000      14.23319000       0.29286400       0.07540800       0.02689100
Zr       0.83307000       2.67134000      17.97515000       0.36743000       0.39955200       0.08892300
Zr       2.63234000       0.87831000      20.43530000      -0.36743000      -0.39955200      -0.08892300
Zr       3.07394000       4.22781000      20.14731000      -0.70873600       0.24762400      -0.51480200
Zr       1.23771000       3.00465000      14.61689000       0.25711500      -0.39769300      -0.53160800
Zr       2.10853000       6.83056000      10.73590000      -0.31553200       0.77802500      -0.64344700
