60
Lattice="5.146 0.0 0.0 0.840294 7.390122 0.0 0.0 0.0 38.41044" Properties=species:S:1:pos:R:3:forces:R:3 energy=-567.40632941 stress="16.83129 1.68583 0.84829 1.68583 -7.19323 0.46613 0.84829 0.46613 12.28789" pbc="T T T"
O        4.25339000       3.65537000      18.57863000      -0.03288300      -0.11145800      -0.04160700
O        4.69217000       6.12920000      17.30547000      -0.20407600       0.02534900      -0.03477800
O        4.75954000       4.81057000      21.10497000       0.20407600      -0.02534900       0.03477800
O        1.91700000       4.65819000      18.23190000       0.04550600      -0.04236400      -0.09096700
O        2.38871000       6.28158000      20.17854000      -0.04550600       0.04236400       0.09096700
O        1.99007000       0.81906000      18.38021000       0.01902400      -0.19919100      -0.08501600
O        1.47534000       2.73058000      20.03023000      -0.01902400       0.19919100       0.08501600
O        4.34556000       3.63874000      23.57693000      -0.07425100      -0.03252700       0.30417800
O        4.23500000       7.34977000      22.23717000      -0.00898300      -0.11676100      -0.11296800
O        3.78994000       2.41534000      21.07847000       0.09591000       0.20615700      -0.08453200
O        1.13128000       0.64280000      25.76622000      -0.08953900       0.34853000      -0.38213200
O        3.94220000       1.12092000      24.76447000       0.04590100      -0.05488100      -0.07573800
O        1.52427000       2.56880000      23.92823000       0.04045300       0.34301000       0.02290300
O        1.95194000       4.48650000      22.11199000       0.02941000      -0.09415300      -0.05732400
O        1.48733000       6.44891000      23.67841000      -0.01306900      -0.37549100       0.32704300
O        3.59155000       0.02356000      27.25794000       0.27060200      -0.09174900      -0.10794800
O        3.38625000       3.62827000      26.06878000      -0.51901700       0.57725700       0.61101000
O        3.82936000       6.11766000      24.71851000      -0.51151700      -0.32770500      -0.21110700
O        2.77958000       2.47618000      28.78950000      -0.92405500       1.01528300      -1.38002700
O        1.03679000       4.69433000      25.64299000       0.23096200      -0.56693600       0.49052100
O        1.88230000       6.29501000      27.88689000      -0.00040000      -1.21506300       0.13274000
O        1.06364000       0.96279000      21.94751000      -0.09902000       0.16880800      -0.26213500
O        5.19832000       7.28440000      19.83181000       0.03288300       0.11145800       0.04160700
O        0.70828000       2.64594000      27.27732000       0.45123500       0.49770300       0.79481800
O        0.07916000      -0.07862000      12.34166000       0.51901700      -0.57725700      -0.61101000
O        3.26891000       6.24544000      12.76745000      -0.23096200       0.56693600      -0.49052100
O        2.75713000       0.90370000      11.13312000      -0.45123500      -0.49770300      -0.79481800
O        2.33413000       2.90685000      12.64422000       0.08953900      -0.34853000       0.38213200
O        2.35377000       6.45327000      16.29845000      -0.02941000       0.09415300       0.05732400
O        0.68583000       1.07347000       9.62094000       0.92405500      -1.01528300       1.38002700
O        5.01986000       3.52608000      11.15250000      -0.27060200       0.09174900       0.10794800
O        2.42341000       4.64476000      10.52355000       0.00040000       1.21506300      -0.13274000
O        5.21671000       3.59000000      16.17327000       0.00898300       0.11676100       0.11296800
O        0.47635000       4.82211000      13.69193000       0.51151700       0.32770500       0.21110700
O        4.66921000       2.42873000      13.64597000      -0.04590100       0.05488100       0.07573800
O        4.82147000       1.13431000      17.33197000      -0.09591000      -0.20615700       0.08453200
O        1.94115000       0.98084000      14.48221000      -0.04045300      -0.34301000      -0.02290300
O        2.40177000       2.58685000      16.46293000       0.09902000      -0.16880800       0.26213500
O        2.81838000       4.49085000      14.73203000       0.01306900       0.37549100      -0.32704300
O        5.10615000       7.30103000      14.83351000       0.07425100       0.03252700      -0.30417800
Zr       5.07868000       2.66714000      25.41708000       0.29714400      -0.63319900      -0.85533700
Zr       1.84454000       0.76062000      27.67027000       0.57808600      -0.20694300       1.03433600
Zr       2.17898000       4.03182000      27.65620000       0.07486200      -0.69719000      -0.01556500
Zr       5.48696000       6.61759000      25.73470000       0.37502100       1.32136700       0.50152700
Zr       1.62088000       2.78903000      10.74017000      -0.57808600       0.20694300      -1.03433600
Zr       3.53274000       0.88250000      12.99336000      -0.29714400       0.63319900       0.85533700
Zr       3.96474000       4.32217000      12.67574000      -0.37502100      -1.32136700      -0.50152700
Zr       1.24206000       6.71436000      18.26417000       0.58998000      -0.23814900       0.46217500
Zr       3.09963000       0.52732000      16.38581000      -0.44353200       0.57771300      -0.11399300
Zr       3.51299000       4.56486000      16.74605000      -0.59034400      -0.28479500      -0.00250400
Zr       0.79272000       6.37491000      21.66439000       0.59034400       0.28479500       0.00250400
Zr       2.60928000       4.56432000      24.15709000      -0.38638000       0.07070900      -0.06796000
Zr       2.21247000       0.53515000      23.78305000      -0.25842000       0.19005300       0.47692700
Zr       0.36578000       3.02232000      22.02463000       0.44353200      -0.57771300       0.11399300
Zr       1.69642000       6.37545000      14.25335000       0.38638000      -0.07070900       0.06796000
Zr       0.84070000       2.67362000      17.97600000       0.26263000       0.41721000       0.08454600
Zr       2.62472000       0.87603000      20.43444000      -0.26263000      -0.41721000      -0.08454600
Zr       3.06365000       4.22541000      20.14627000      -0.58998000       0.23814900      -0.46217500
Zr       1.25295000       3.01449000      14.62739000       0.25842000      -0.19005300      -0.47692700
Zr       2.12673000       6.90795000      10.75424000      -0.07486200       0.69719000       0.01556500
