60
Lattice="5.146 0.0 0.0 0.840294 7.390122 0.0 0.0 0.0 38.41044" Properties=species:S:1:pos:R:3:forces:R:3 energy=-568.05411355 stress="16.81794 2.36482 -0.55313 2.36482 -6.45016 0.16221 -0.55313 0.16221 12.45216" pbc="T T T"
O        4.25257000       3.65180000      18.57936000      -0.09443300      -0.04906800      -0.07459700
O        4.68561000       6.13054000      17.30427000      -0.09745200      -0.02723100       0.04735300
O        4.76610000       4.80923000      21.10617000       0.09745200       0.02723100      -0.04735300
O        1.91955000       4.65522000      18.22959000      -0.01258800      -0.02535500      -0.01701700
O        2.38615000       6.28454000      20.18085000       0.01258800       0.02535500       0.01701700
O        1.99269000       0.81064000      18.37691000       0.00801300      -0.07295700       0.01596400
O        1.47272000       2.73901000      20.03353000      -0.00801300       0.07295700      -0.01596400
O        4.34416000       3.62969000      23.58908000      -0.04509400      -0.12500100       0.16698000
O        4.22978000       7.34674000      22.23218000      -0.05586300      -0.07625700       0.01052600
O        3.78835000       2.42186000      21.07286000      -0.00668700       0.04962900      -0.12228700
O        1.12947000       0.65880000      25.75260000       0.05781900       0.27552600       0.17539900
O        3.93762000       1.11014000      24.75607000       0.03354400      -0.12099200      -0.02160500
O        1.52352000       2.57799000      23.92453000       0.09852100       0.05518900      -0.05474400
O        1.95103000       4.47947000      22.10340000       0.06486600       0.00491100      -0.01956700
O        1.48431000       6.43143000      23.68734000      -0.11897200      -0.12923900       0.18634300
O        3.60127000       0.00684000      27.25201000       0.18765600       0.01196400       0.09601100
O        3.36804000       3.64260000      26.09044000       0.27916600       0.11438800      -0.10609100
O        3.81376000       6.10458000      24.70263000       0.02295100       0.04620300       0.11931400
O        2.70777000       2.42126000      28.70685000      -0.04882100       0.24769500      -0.13935200
O        1.04586000       4.67404000      25.66756000      -0.05976700       0.03479900       0.21748600
O        1.89832000       6.23198000      27.90629000       0.08313300      -0.52933600       0.04778700
O        1.05676000       0.96654000      21.93493000      -0.05751500      -0.05619800      -0.01934200
O        5.19914000       7.28797000      19.83109000       0.09443300       0.04906800       0.07459700
O        0.70074000       2.66043000      27.29302000      -0.25714800      -0.14806500       0.02499600
O        0.09737000      -0.09295000      12.32001000      -0.27916600      -0.11438800       0.10609100
O        3.25984000       6.26573000      12.74288000       0.05976700      -0.03479900      -0.21748600
O        2.76467000       0.88922000      11.11742000       0.25714800       0.14806500      -0.02499600
O        2.33594000       2.89084000      12.65784000      -0.05781900      -0.27552600      -0.17539900
O        2.35468000       6.46030000      16.30704000      -0.06486600      -0.00491100       0.01956700
O        0.75765000       1.12839000       9.70359000       0.04882100      -0.24769500       0.13935200
O        5.01014000       3.54280000      11.15843000      -0.18765600      -0.01196400      -0.09601100
O        2.40738000       4.70779000      10.50415000      -0.08313300       0.52933600      -0.04778700
O        5.22192000       3.59303000      16.17826000       0.05586300       0.07625700      -0.01052600
O        0.49194000       4.83519000      13.70781000      -0.02295100      -0.04620300      -0.11931400
O        4.67379000       2.43951000      13.65437000      -0.03354400       0.12099200       0.02160500
O        4.82307000       1.12778000      17.33758000       0.00668700      -0.04962900       0.12228700
O        1.94189000       0.97165000      14.48591000      -0.09852100      -0.05518900       0.05474400
O        2.40866000       2.58311000      16.47552000       0.05751500       0.05619800       0.01934200
O        2.82140000       4.50834000      14.72310000       0.11897200       0.12923900      -0.18634300
O        5.10755000       7.31007000      14.82137000       0.04509400       0.12500100      -0.16698000
Zr       5.08858000       2.64907000      25.37930000       0.03694100       0.07248300       0.24181200
Zr       1.86693000       0.74007000      27.71325000      -0.04864700      -0.09031700       0.25921400
Zr       2.16983000       4.00468000      27.63242000      -0.27515200       0.26168500      -0.21152300
Zr       5.50521000       6.64959000      25.74538000       0.03514400       0.10585800       0.04577400
Zr       1.59848000       2.80958000      10.69719000       0.04864700       0.09031700      -0.25921400
Zr       3.52283000       0.90057000      13.03114000      -0.03694100      -0.07248300      -0.24181200
Zr       3.94650000       4.29018000      12.66506000      -0.03514400      -0.10585800      -0.04577400
Zr       1.26066000       6.70766000      18.27803000      -0.06065900       0.00897500      -0.04386100
Zr       3.08821000       0.54771000      16.38801000       0.06812700      -0.02423300       0.05676600
Zr       3.49699000       4.55894000      16.74578000       0.02562400       0.04507000      -0.03473700
Zr       0.80872000       6.38083000      21.66466000      -0.02562400      -0.04507000       0.03473700
Zr       2.58740000       4.57055000      24.15659000      -0.00991400      -0.09104800       0.14845900
Zr       2.19887000       0.52889000      23.79611000       0.05805800      -0.02670300       0.10337000
Zr       0.37720000       3.00193000      22.02243000      -0.06812700       0.02423300      -0.05676600
Zr       1.71830000       6.36922000      14.25385000       0.00991400       0.09104800      -0.14845900
Zr       0.84406000       2.68952000      17.97838000      -0.12734900      -0.01450100       0.02710500
Zr       2.62135000       0.86013000      20.43206000       0.12734900       0.01450100      -0.02710500
Zr       3.04504000       4.23211000      20.13241000       0.06065900      -0.00897500       0.04386100
Zr       1.26654000       3.02075000      14.61433000      -0.05805800       0.02670300      -0.10337000
Zr       2.13588000       6.93509000      10.77802000       0.27515200      -0.26168500       0.21152300
