60
Lattice="5.146 0.0 0.0 0.840294 7.390122 0.0 0.0 0.0 38.41044" Properties=species:S:1:pos:R:3:forces:R:3 energy=-568.0928676 stress="16.83752 2.25417 -0.96988 2.25417 -6.83856 0.08271 -0.96988 0.08271 12.20627" pbc="T T T"
O        4.25074000       3.64968000      18.57884000      -0.09750200      -0.01616000      -0.10610800
O        4.68234000       6.13070000      17.30505000      -0.06691100      -0.04885100       0.04841900
O        4.76937000       4.80907000      21.10539000       0.06691100       0.04885100      -0.04841900
O        1.91927000       4.65346000      18.22935000      -0.00338300       0.01197100      -0.02835300
O        2.38643000       6.28630000      20.18109000       0.00338300      -0.01197100       0.02835300
O        1.99320000       0.80745000      18.37613000       0.00468400      -0.03511900       0.04646300
O        1.47221000       2.74219000      20.03431000      -0.00468400       0.03511900      -0.04646300
O        4.34590000       3.62296000      23.59537000      -0.14324700       0.00839600       0.08320400
O        4.22608000       7.34660000      22.23317000       0.02422600      -0.13537200      -0.03586000
O        3.78737000       2.42353000      21.06934000       0.01924800       0.04340700      -0.09972500
O        1.13141000       0.67053000      25.75306000       0.02240600       0.08876700       0.23922200
O        3.93553000       1.10521000      24.75368000       0.11554900      -0.06790700       0.01902500
O        1.52444000       2.57987000      23.92388000       0.13390500       0.05778600      -0.08317600
O        1.95180000       4.47719000      22.09999000       0.07943900       0.07235700       0.06440400
O        1.48300000       6.42816000      23.69183000      -0.16880800      -0.15754500       0.18117900
O        3.60428000       0.00806000      27.25560000       0.24255000      -0.07946100       0.01332300
O        3.36957000       3.64541000      26.09725000       0.37921800       0.13806100      -0.37479800
O        3.81216000       6.10628000      24.70283000       0.04724500      -0.03186600       0.14715900
O        2.69958000       2.42366000      28.69571000      -0.00891000       0.15243100      -0.09077200
O        1.04537000       4.67253000      25.67651000      -0.06291100       0.05608300       0.10788000
O        1.90206000       6.21380000      27.91035000       0.05670100      -0.41808200      -0.00233500
O        1.05514000       0.96722000      21.93236000      -0.06256100      -0.11068700       0.02000100
O        5.20097000       7.29009000      19.83160000       0.09750200       0.01616000       0.10610800
O        0.69797000       2.65917000      27.30027000      -0.37027600      -0.15504400      -0.17989400
O        0.09584000      -0.09576000      12.31319000      -0.37921800      -0.13806100       0.37479800
O        3.26034000       6.26724000      12.73393000       0.06291100      -0.05608300      -0.10788000
O        2.76745000       0.89048000      11.11018000       0.37027600       0.15504400       0.17989400
O        2.33400000       2.87911000      12.65738000      -0.02240600      -0.08876700      -0.23922200
O        2.35390000       6.46258000      16.31045000      -0.07943900      -0.07235700      -0.06440400
O        0.76583000       1.12599000       9.71473000       0.00891000      -0.15243100       0.09077200
O        5.00713000       3.54159000      11.15484000      -0.24255000       0.07946100      -0.01332300
O        2.40365000       4.72597000      10.50009000      -0.05670100       0.41808200       0.00233500
O        5.22562000       3.59317000      16.17727000      -0.02422600       0.13537200       0.03586000
O        0.49354000       4.83349000      13.70761000      -0.04724500       0.03186600      -0.14715900
O        4.67588000       2.44444000      13.65676000      -0.11554900       0.06790700      -0.01902500
O        4.82404000       1.12611000      17.34110000      -0.01924800      -0.04340700       0.09972500
O        1.94097000       0.96978000      14.48656000      -0.13390500      -0.05778600       0.08317600
O        2.41028000       2.58242000      16.47809000       0.06256100       0.11068700      -0.02000100
O        2.82270000       4.51161000      14.71861000       0.16880800       0.15754500      -0.18117900
O        5.10580000       7.31681000      14.81507000       0.14324700      -0.00839600      -0.08320400
Zr       5.09329000       2.65535000      25.37516000      -0.07778900      -0.16780600       0.45997500
Zr       1.86772000       0.72622000      27.72441000      -0.03449900       0.29366400       0.17414500
Zr       2.16417000       4.01354000      27.61697000      -0.29782500       0.01536100       0.16088600
Zr       5.51200000       6.64786000      25.74487000      -0.13638800       0.35797700       0.13524700
Zr       1.59770000       2.82343000      10.68603000       0.03449900      -0.29366400      -0.17414500
Zr       3.51812000       0.89429000      13.03528000       0.07778900       0.16780600      -0.45997500
Zr       3.93971000       4.29190000      12.66557000       0.13638800      -0.35797700      -0.13524700
Zr       1.26006000       6.70725000      18.27837000      -0.02148300       0.00840700      -0.04300500
Zr       3.08880000       0.54891000      16.39112000       0.05699800      -0.01977100      -0.00983300
Zr       3.49528000       4.55996000      16.74281000       0.05573500       0.02108600       0.05251900
Zr       0.81042000       6.37980000      21.66763000      -0.05573500      -0.02108600      -0.05251900
Zr       2.57950000       4.57528000      24.16166000       0.20545100      -0.31581000       0.06756700
Zr       2.19680000       0.52135000      23.79773000       0.13527300       0.21805100       0.16129300
Zr       0.37662000       3.00074000      22.01932000      -0.05699800       0.01977100       0.00983300
Zr       1.72621000       6.36449000      14.24878000      -0.20545100       0.31581000      -0.06756700
Zr       0.83925000       2.69232000      17.97819000      -0.02916700      -0.07792200       0.06093900
Zr       2.62617000       0.85733000      20.43225000       0.02916700       0.07792200      -0.06093900
Zr       3.04564000       4.23252000      20.13207000       0.02148300      -0.00840700       0.04300500
Zr       1.26861000       3.02829000      14.61271000      -0.13527300      -0.21805100      -0.16129300
Zr       2.14154000       6.92623000      10.79348000       0.29782500      -0.01536100      -0.16088600
