60
Lattice="5.146 0.0 0.0 0.840294 7.390122 0.0 0.0 0.0 38.41044" Properties=species:S:1:pos:R:3:forces:R:3 energy=-568.25498046 stress="14.58345 2.17018 0.76403 2.17018 -8.16693 0.32391 0.76403 0.32391 10.97261" pbc="T T T"
O        4.23923000       3.64414000      18.56834000      -0.02357500      -0.01585200      -0.04379300
O        4.67352000       6.13016000      17.31254000      -0.02892400       0.01862600       0.02443400
O        4.77819000       4.80961000      21.09790000       0.02892400      -0.01862600      -0.02443400
O        1.91747000       4.65362000      18.22761000      -0.02778200       0.01483000       0.00439600
O        2.38823000       6.28615000      20.18283000       0.02778200      -0.01483000      -0.00439600
O        1.99511000       0.80130000      18.37911000       0.00543600       0.03332400      -0.01397500
O        1.47030000       2.74835000      20.03134000      -0.00543600      -0.03332400       0.01397500
O        4.33793000       3.61225000      23.60684000       0.07108800      -0.04273100      -0.18328200
O        4.21983000       7.33491000      22.23386000      -0.03740800      -0.03054500       0.03872600
O        3.79033000       2.43022000      21.05594000       0.02655300      -0.03519800       0.00320500
O        1.14094000       0.69190000      25.78738000       0.06014600      -0.10188300      -0.10327600
O        3.94885000       1.09456000      24.75629000       0.00262900      -0.00699700      -0.05454000
O        1.53651000       2.58623000      23.91965000       0.00238200      -0.06715300       0.04440100
O        1.96057000       4.48001000      22.10300000       0.00594800       0.01565300       0.01096600
O        1.46771000       6.41199000      23.71761000       0.06150600       0.07539600       0.02485100
O        3.61537000       0.01209000      27.27810000       0.12824500       0.02292000      -0.01694200
O        3.39528000       3.66732000      26.08364000      -0.04022100       0.06828700      -0.11112800
O        3.81484000       6.10779000      24.72172000      -0.10372900       0.03142300       0.00682700
O        2.68681000       2.43366000      28.67449000      -0.00861900      -0.00610300      -0.03578800
O        1.03946000       4.67288000      25.70441000       0.00265700      -0.07144800      -0.06799700
O        1.91804000       6.15613000      27.91996000       0.12354300       0.02951600       0.03044700
O        1.04827000       0.95931000      21.93343000       0.01445800       0.00578900       0.07701100
O        5.21247000       7.29563000      19.84210000       0.02357500       0.01585200       0.04379300
O        0.66069000       2.64127000      27.30858000      -0.17391300       0.00389300       0.06308400
O        0.07013000      -0.11768000      12.32680000       0.04022100      -0.06828700       0.11112800
O        3.26624000       6.26689000      12.70603000      -0.00265700       0.07144800       0.06799700
O        2.80472000       0.90837000      11.10186000       0.17391300      -0.00389300      -0.06308400
O        2.32447000       2.85774000      12.62307000      -0.06014600       0.10188300       0.10327600
O        2.34514000       6.45976000      16.30744000      -0.00594800      -0.01565300      -0.01096600
O        0.77861000       1.11598000       9.73595000       0.00861900       0.00610300       0.03578800
O        4.99604000       3.53756000      11.13234000      -0.12824500      -0.02292000       0.01694200
O        2.38767000       4.78364000      10.49048000      -0.12354300      -0.02951600      -0.03044700
O        5.23187000       3.60486000      16.17658000       0.03740800       0.03054500      -0.03872600
O        0.49087000       4.83198000      13.68872000       0.10372900      -0.03142300      -0.00682700
O        4.66256000       2.45509000      13.65415000      -0.00262900       0.00699700       0.05454000
O        4.82108000       1.11943000      17.35450000      -0.02655300       0.03519800      -0.00320500
O        1.92891000       0.96342000      14.49080000      -0.00238200       0.06715300      -0.04440100
O        2.41714000       2.59033000      16.47701000      -0.01445800      -0.00578900      -0.07701100
O        2.83800000       4.52778000      14.69283000      -0.06150600      -0.07539600      -0.02485100
O        5.11377000       7.32752000      14.80360000      -0.07108800       0.04273100       0.18328200
Zr       5.09009000       2.64889000      25.39735000       0.06703400       0.03885700       0.25704100
Zr       1.87324000       0.73380000      27.74629000      -0.02186200       0.04816800       0.20390000
Zr       2.13110000       4.02703000      27.59277000      -0.07346800       0.05388600       0.09642900
Zr       5.50817000       6.66791000      25.74228000      -0.03493500      -0.08938500       0.30293800
Zr       1.59217000       2.81585000      10.66415000       0.02186200      -0.04816800      -0.20390000
Zr       3.52132000       0.90076000      13.01309000      -0.06703400      -0.03885700      -0.25704100
Zr       3.94353000       4.27186000      12.66816000       0.03493500       0.08938500      -0.30293800
Zr       1.26119000       6.70251000      18.27677000      -0.02143300       0.00950400       0.02482200
Zr       3.09212000       0.54760000      16.38978000      -0.01800800      -0.04073600      -0.04384400
Zr       3.49215000       4.56161000      16.73881000      -0.02926200      -0.00679300      -0.10519500
Zr       0.81355000       6.37816000      21.67163000       0.02926200       0.00679300       0.10519500
Zr       2.59030000       4.55412000      24.17137000       0.02634100       0.06255400       0.18209600
Zr       2.20364000       0.52543000      23.80666000      -0.05012900      -0.08867700       0.11781000
Zr       0.37329000       3.00204000      22.02066000       0.01800800       0.04073600       0.04384400
Zr       1.71541000       6.38565000      14.23908000      -0.02634100      -0.06255400      -0.18209600
Zr       0.83519000       2.69183000      17.98220000       0.00356200      -0.01962000      -0.01444100
Zr       2.63022000       0.85782000      20.42824000      -0.00356200       0.01962000       0.01444100
Zr       3.04452000       4.23726000      20.13367000       0.02143300      -0.00950400      -0.02482200
Zr       1.26177000       3.02422000      14.60378000       0.05012900       0.08867700      -0.11781000
Zr       2.17461000       6.91274000      10.81767000       0.07346800      -0.05388600      -0.09642900
