60
Lattice="5.146 0.0 0.0 0.840294 7.390122 0.0 0.0 0.0 38.41044" Properties=species:S:1:pos:R:3:forces:R:3 energy=-568.30661493 stress="12.15839 2.11171 1.12395 2.11171 -9.5827 0.40534 1.12395 0.40534 8.34962" pbc="T T T"
O        4.23058000       3.63956000      18.55575000       0.01370300      -0.02406200      -0.00681300
O        4.66430000       6.13154000      17.31910000      -0.00423600       0.00736900       0.04015700
O        4.78741000       4.80823000      21.09134000       0.00423600      -0.00736900      -0.04015700
O        1.91288000       4.65566000      18.22635000      -0.00471100      -0.00885700      -0.00380600
O        2.39283000       6.28411000      20.18409000       0.00471100       0.00885700       0.00380600
O        1.99604000       0.80430000      18.37826000      -0.02859800       0.00827400      -0.00594000
O        1.46937000       2.74534000      20.03219000       0.02859800      -0.00827400       0.00594000
O        4.34038000       3.60482000      23.59472000       0.01602200       0.01450300       0.04157900
O        4.21120000       7.32401000      22.24392000       0.04967000      -0.03552300      -0.04815100
O        3.79626000       2.42734000      21.05153000      -0.00079700      -0.00402900      -0.00444500
O        1.15456000       0.68260000      25.80428000      -0.01118200      -0.01896900       0.07776400
O        3.96242000       1.09111000      24.75921000      -0.03904300      -0.03667000       0.03006300
O        1.54021000       2.57961000      23.93466000      -0.02321300       0.00487300       0.05298000
O        1.96634000       4.48500000      22.11288000      -0.01536000      -0.02085300      -0.03123000
O        1.46976000       6.41424000      23.73904000      -0.00014500      -0.01907000      -0.05733500
O        3.62890000       0.02373000      27.29867000       0.01719600       0.04305600       0.07583100
O        3.39119000       3.68936000      26.07524000      -0.01473000      -0.07030300       0.04675800
O        3.80823000       6.11267000      24.74092000       0.03743600      -0.01598700       0.04955900
O        2.68176000       2.43676000      28.66412000       0.01856600       0.01493600       0.01581700
O        1.03451000       4.66049000      25.71463000      -0.07712900       0.01198700      -0.00552400
O        1.94470000       6.13844000      27.93250000       0.00935100       0.07509200       0.07748400
O        1.04839000       0.95623000      21.94858000       0.02180800       0.03713900      -0.03202500
O        5.22112000       7.30021000      19.85470000      -0.01370300       0.02406200       0.00681300
O        0.62387000       2.63596000      27.33843000      -0.01927400       0.04911300       0.01192500
O        0.07422000      -0.13971000      12.33520000       0.01473000       0.07030300      -0.04675800
O        3.27120000       6.27928000      12.69581000       0.07712900      -0.01198700       0.00552400
O        2.84154000       0.91368000      11.07201000       0.01927400      -0.04911300      -0.01192500
O        2.31085000       2.86705000      12.60616000       0.01118200       0.01896900      -0.07776400
O        2.33937000       6.45476000      16.29756000       0.01536000       0.02085300       0.03123000
O        0.78366000       1.11289000       9.74632000      -0.01856600      -0.01493600      -0.01581700
O        4.98252000       3.52592000      11.11178000      -0.01719600      -0.04305600      -0.07583100
O        2.36101000       4.80132000      10.47794000      -0.00935100      -0.07509200      -0.07748400
O        5.24050000       3.61575000      16.16652000      -0.04967000       0.03552300       0.04815100
O        0.49747000       4.82710000      13.66952000      -0.03743600       0.01598700      -0.04955900
O        4.64899000       2.45854000      13.65124000       0.03904300       0.03667000      -0.03006300
O        4.81515000       1.12231000      17.35891000       0.00079700       0.00402900       0.00444500
O        1.92520000       0.97004000      14.47578000       0.02321300      -0.00487300      -0.05298000
O        2.41702000       2.59342000      16.46186000      -0.02180800      -0.03713900       0.03202500
O        2.83595000       4.52553000      14.67140000       0.00014500       0.01907000       0.05733500
O        5.11132000       7.33495000      14.81572000      -0.01602200      -0.01450300      -0.04157900
Zr       5.09424000       2.64405000      25.41509000      -0.00812600       0.01291700       0.06463900
Zr       1.87519000       0.74273000      27.77027000       0.00224400       0.00035400      -0.04380700
Zr       2.11007000       4.03899000      27.58645000       0.05348800      -0.10299300       0.04941600
Zr       5.50161000       6.66531000      25.76729000       0.05401500       0.00364800       0.01204200
Zr       1.59023000       2.80692000      10.64017000      -0.00224400      -0.00035400       0.04380700
Zr       3.51717000       0.90560000      12.99535000       0.00812600      -0.01291700      -0.06463900
Zr       3.95010000       4.27446000      12.64316000      -0.05401500      -0.00364800      -0.01204200
Zr       1.25749000       6.70316000      18.28127000      -0.02705100      -0.00966800      -0.01006800
Zr       3.08870000       0.54354000      16.38747000      -0.06125500       0.03455600      -0.07159500
Zr       3.48775000       4.56053000      16.72651000      -0.00208200      -0.00522500      -0.09982100
Zr       0.81796000       6.37924000      21.68393000       0.00208200       0.00522500       0.09982100
Zr       2.60119000       4.55034000      24.18278000      -0.05330400       0.07637600       0.05841100
Zr       2.19918000       0.51906000      23.81477000       0.02511300       0.02623600       0.16139600
Zr       0.37672000       3.00610000      22.02297000       0.06125500      -0.03455600       0.07159500
Zr       1.70451000       6.38943000      14.22766000       0.05330400      -0.07637600      -0.05841100
Zr       0.83427000       2.68908000      17.98111000       0.00083200       0.08470500      -0.10002100
Zr       2.63114000       0.86057000      20.42933000      -0.00083200      -0.08470500       0.10002100
Zr       3.04821000       4.23660000      20.12917000       0.02705100       0.00966800       0.01006800
Zr       1.26623000       3.03058000      14.59567000      -0.02511300      -0.02623600      -0.16139600
Zr       2.19564000       6.90077000      10.82399000      -0.05348800       0.10299300      -0.04941600
