60
Lattice="5.146 0.0 0.0 0.840294 7.390122 0.0 0.0 0.0 38.41044" Properties=species:S:1:pos:R:3:forces:R:3 energy=-568.31586823 stress="11.76577 2.20612 1.19165 2.20612 -9.71254 0.29084 1.19165 0.29084 7.80194" pbc="T T T"
O        4.22995000       3.63809000      18.55356000      -0.00104400      -0.00725700      -0.01260300
O        4.66239000       6.13159000      17.32123000      -0.02107800       0.01150400       0.00924700
O        4.78932000       4.80818000      21.08921000       0.02107800      -0.01150400      -0.00924700
O        1.91210000       4.65539000      18.22581000       0.01239900       0.00522100      -0.02354100
O        2.39361000       6.28438000      20.18463000      -0.01239900      -0.00522100       0.02354100
O        1.99494000       0.80513000      18.37770000      -0.02270500      -0.00185300      -0.00598000
O        1.47047000       2.74451000      20.03274000       0.02270500       0.00185300       0.00598000
O        4.34115000       3.60464000      23.59555000      -0.01258000       0.02515400       0.07592600
O        4.21184000       7.32108000      22.24412000      -0.00370700      -0.01195700       0.05143700
O        3.79689000       2.42638000      21.05099000       0.03604400       0.01748600       0.03618500
O        1.15583000       0.68003000      25.80919000      -0.01637500       0.00814400       0.04683300
O        3.96281000       1.08927000      24.76114000      -0.01647400      -0.02648400       0.04715600
O        1.53947000       2.57867000      23.94007000      -0.00532300       0.00324900       0.05018500
O        1.96651000       4.48504000      22.11363000      -0.00749600      -0.02475600       0.02310400
O        1.47050000       6.41397000      23.74022000       0.00734000      -0.00817400       0.00405300
O        3.63211000       0.02698000      27.30405000       0.01646600       0.02921900       0.04552500
O        3.38899000       3.68955000      26.07691000       0.00116300      -0.08143200       0.02268200
O        3.80894000       6.11274000      24.74580000       0.02878800      -0.01483200       0.05059300
O        2.68181000       2.43826000      28.66324000       0.02871200      -0.00356200       0.03662700
O        1.03068000       4.65868000      25.71585000      -0.05608300       0.04022800       0.00335400
O        1.94887000       6.13921000      27.93740000      -0.00177700       0.06584700       0.05772100
O        1.04942000       0.95729000      21.94991000       0.02496000       0.01367600       0.02828500
O        5.22176000       7.30167000      19.85688000       0.00104400       0.00725700       0.01260300
O        0.61865000       2.63798000      27.34456000      -0.00539700       0.02500600      -0.03183700
O        0.07642000      -0.13990000      12.33353000      -0.00116300       0.08143200      -0.02268200
O        3.27503000       6.28109000      12.69459000       0.05608300      -0.04022800      -0.00335400
O        2.84676000       0.91167000      11.06588000       0.00539700      -0.02500600       0.03183700
O        2.30958000       2.86962000      12.60125000       0.01637500      -0.00814400      -0.04683300
O        2.33919000       6.45473000      16.29681000       0.00749600       0.02475600      -0.02310400
O        0.78361000       1.11138000       9.74720000      -0.02871200       0.00356200      -0.03662700
O        4.97930000       3.52267000      11.10639000      -0.01646600      -0.02921900      -0.04552500
O        2.35684000       4.80056000      10.47304000       0.00177700      -0.06584700      -0.05772100
O        5.23987000       3.61869000      16.16632000       0.00370700       0.01195700      -0.05143700
O        0.49677000       4.82702000      13.66464000      -0.02878800       0.01483200      -0.05059300
O        4.64861000       2.46037000      13.64930000       0.01647400       0.02648400      -0.04715600
O        4.81452000       1.12326000      17.35945000      -0.03604400      -0.01748600      -0.03618500
O        1.92594000       0.97098000      14.47037000       0.00532300      -0.00324900      -0.05018500
O        2.41600000       2.59235000      16.46053000      -0.02496000      -0.01367600      -0.02828500
O        2.83521000       4.52580000      14.67022000      -0.00734000       0.00817400      -0.00405300
O        5.11055000       7.33513000      14.81489000       0.01258000      -0.02515400      -0.07592600
Zr       5.09497000       2.64359000      25.41763000      -0.05109600       0.04481900       0.07022600
Zr       1.87493000       0.74284000      27.77202000       0.02559400      -0.01839400      -0.00000500
Zr       2.10969000       4.03714000      27.58792000       0.03834200      -0.05339900       0.06949300
Zr       5.50320000       6.66517000      25.77175000       0.00740400      -0.00522500       0.02697100
Zr       1.59048000       2.80681000      10.63843000      -0.02559400       0.01839400       0.00000500
Zr       3.51644000       0.90606000      12.99281000       0.05109600      -0.04481900      -0.07022600
Zr       3.94850000       4.27459000      12.63869000      -0.00740400       0.00522500      -0.02697100
Zr       1.25524000       6.70376000      18.28177000      -0.00093600       0.00226000       0.01998600
Zr       3.08576000       0.54463000      16.38567000      -0.01050600       0.01599300       0.00837800
Zr       3.48764000       4.56023000      16.72161000      -0.01272000       0.02001700       0.02812600
Zr       0.81806000       6.37954000      21.68883000       0.01272000      -0.02001700      -0.02812600
Zr       2.60003000       4.55330000      24.18518000      -0.00768400       0.00688100       0.02114200
Zr       2.19912000       0.51925000      23.82132000       0.06013000       0.02093600       0.04685000
Zr       0.37966000       3.00502000      22.02477000       0.01050600      -0.01599300      -0.00837800
Zr       1.70568000       6.38647000      14.22526000       0.00768400      -0.00688100      -0.02114200
Zr       0.83348000       2.69171000      17.97707000       0.02279800       0.04306000       0.01182800
Zr       2.63193000       0.85794000      20.43337000      -0.02279800      -0.04306000      -0.01182800
Zr       3.05047000       4.23601000      20.12867000       0.00093600      -0.00226000      -0.01998600
Zr       1.26629000       3.03040000      14.58912000      -0.06013000      -0.02093600      -0.04685000
Zr       2.19602000       6.90263000      10.82252000      -0.03834200       0.05339900      -0.06949300
