60
Lattice="5.146 0.0 0.0 0.840294 7.390122 0.0 0.0 0.0 38.41044" Properties=species:S:1:pos:R:3:forces:R:3 energy=-568.32783417 stress="10.81973 2.11406 1.22726 2.11406 -10.25014 0.10082 1.22726 0.10082 6.26138" pbc="T T T"
O        4.22760000       3.63482000      18.54704000      -0.00191000       0.00571300       0.01343100
O        4.65541000       6.13275000      17.32562000       0.02779400       0.02060700       0.04299800
O        4.79629000       4.80702000      21.08482000      -0.02779400      -0.02060700      -0.04299800
O        1.91185000       4.65572000      18.22189000      -0.00720400       0.02596000       0.02101500
O        2.39385000       6.28405000      20.18855000       0.00720400      -0.02596000      -0.02101500
O        1.99095000       0.80656000      18.37593000      -0.02758400      -0.01246500       0.03397700
O        1.47446000       2.74308000      20.03451000       0.02758400       0.01246500      -0.03397700
O        4.34078000       3.60649000      23.60464000       0.02069000       0.00842200      -0.03205400
O        4.21058000       7.31412000      22.25303000       0.02207700      -0.00480500      -0.01827100
O        3.80275000       2.42634000      21.05419000      -0.04404200      -0.02111900      -0.02158600
O        1.15747000       0.67554000      25.82309000      -0.00984700       0.04718900       0.00195400
O        3.96372000       1.08348000      24.77000000       0.03173500       0.03067800       0.05918100
O        1.53797000       2.57651000      23.95675000       0.00883800       0.02357900      -0.02700400
O        1.96681000       4.48319000      22.11978000       0.01683300      -0.01802700      -0.02495900
O        1.47318000       6.41329000      23.74642000       0.01716800       0.01246700      -0.00772700
O        3.64111000       0.03640000      27.31914000       0.00933700      -0.00415100       0.02299900
O        3.38440000       3.68375000      26.08146000      -0.08273400      -0.03423400       0.04788500
O        3.81218000       6.11199000      24.76148000      -0.04565500      -0.02478300       0.03123000
O        2.68446000       2.44071000      28.66473000       0.02932600       0.00175200       0.08807500
O        1.01831000       4.65849000      25.71952000       0.06563300       0.04032000       0.06769200
O        1.95826000       6.14514000      27.95245000      -0.02012900      -0.03327600       0.02385300
O        1.05386000       0.95971000      21.95806000       0.02838000      -0.01947900      -0.01712900
O        5.22411000       7.30495000      19.86340000       0.00191000      -0.00571300      -0.01343100
O        0.60619000       2.64349000      27.35540000       0.11107300       0.02319000       0.02269100
O        0.08101000      -0.13410000      12.32898000       0.08273400       0.03423400      -0.04788500
O        3.28739000       6.28128000      12.69092000      -0.06563300      -0.04032000      -0.06769200
O        2.85922000       0.90616000      11.05504000      -0.11107300      -0.02319000      -0.02269100
O        2.30794000       2.87410000      12.58735000       0.00984700      -0.04718900      -0.00195400
O        2.33890000       6.45658000      16.29066000      -0.01683300       0.01802700       0.02495900
O        0.78095000       1.10893000       9.74571000      -0.02932600      -0.00175200      -0.08807500
O        4.97030000       3.51325000      11.09130000      -0.00933700       0.00415100      -0.02299900
O        2.34745000       4.79463000      10.45799000       0.02012900       0.03327600      -0.02385300
O        5.24113000       3.62565000      16.15741000      -0.02207700       0.00480500       0.01827100
O        0.49353000       4.82778000      13.64896000       0.04565500       0.02478300      -0.03123000
O        4.64769000       2.46617000      13.64044000      -0.03173500      -0.03067800      -0.05918100
O        4.80866000       1.12330000      17.35625000       0.04404200       0.02111900       0.02158600
O        1.92744000       0.97314000      14.45369000      -0.00883800      -0.02357900       0.02700400
O        2.41155000       2.58994000      16.45238000      -0.02838000       0.01947900       0.01712900
O        2.83252000       4.52648000      14.66402000      -0.01716800      -0.01246700       0.00772700
O        5.11093000       7.33328000      14.80580000      -0.02069000      -0.00842200       0.03205400
Zr       5.09103000       2.64719000      25.42895000      -0.03339600      -0.00097900      -0.00578400
Zr       1.87722000       0.74088000      27.77834000       0.02237600      -0.07177200       0.01920900
Zr       2.11071000       4.03121000      27.59726000      -0.03790400       0.06011500       0.01961600
Zr       5.50540000       6.66399000      25.78527000      -0.01389700       0.01978700       0.01797800
Zr       1.58819000       2.80876000      10.63210000      -0.02237600       0.07177200      -0.01920900
Zr       3.52038000       0.90246000      12.98149000       0.03339600       0.00097900       0.00578400
Zr       3.94631000       4.27577000      12.62517000       0.01389700      -0.01978700      -0.01797800
Zr       1.25092000       6.70596000      18.28584000      -0.00973500       0.02725300      -0.09934500
Zr       3.08024000       0.54751000      16.38574000       0.06187800      -0.02384900      -0.16820300
Zr       3.48598000       4.56215000      16.71782000      -0.01051500       0.00747300      -0.10555400
Zr       0.81973000       6.37762000      21.69262000       0.01051500      -0.00747300       0.10555400
Zr       2.59881000       4.55761000      24.19067000       0.01420600      -0.07483900       0.04554300
Zr       2.20485000       0.52094000      23.83519000      -0.00051700       0.00236100       0.01785900
Zr       0.38517000       3.00213000      22.02470000      -0.06187800       0.02384900       0.16820300
Zr       1.70689000       6.38216000      14.21977000      -0.01420600       0.07483900      -0.04554300
Zr       0.83422000       2.69913000      17.97343000       0.00305700      -0.08797900      -0.04304100
Zr       2.63119000       0.85052000      20.43701000      -0.00305700       0.08797900       0.04304100
Zr       3.05479000       4.23381000      20.12460000       0.00973500      -0.02725300       0.09934500
Zr       1.26056000       3.02870000      14.57525000       0.00051700      -0.00236100      -0.01785900
Zr       2.19499000       6.90856000      10.81318000       0.03790400      -0.06011500      -0.01961600
