60
Lattice="5.146 0.0 0.0 0.840294 7.390122 0.0 0.0 0.0 38.41044" Properties=species:S:1:pos:R:3:forces:R:3 energy=-568.34376019 stress="10.007 1.99702 1.29188 1.99702 -11.54479 0.11531 1.29188 0.11531 3.75169" pbc="T T T"
O        4.22482000       3.63140000      18.53966000      -0.00304700       0.00728400       0.00562000
O        4.64781000       6.13761000      17.33259000      -0.01255800       0.00601400      -0.05777500
O        4.80390000       4.80216000      21.07785000       0.01255800      -0.00601400       0.05777500
O        1.91148000       4.65983000      18.21766000      -0.00167700       0.00337700      -0.01225800
O        2.39422000       6.27994000      20.19278000       0.00167700      -0.00337700       0.01225800
O        1.98334000       0.80707000      18.37734000       0.01936800       0.00040600       0.00660300
O        1.48207000       2.74257000      20.03310000      -0.01936800      -0.00040600      -0.00660300
O        4.34212000       3.61052000      23.61455000       0.00420300       0.00033900       0.01173000
O        4.21160000       7.30587000      22.26559000       0.03288600       0.01835500      -0.00120500
O        3.80663000       2.42384000      21.05933000      -0.02504400      -0.01851000       0.02446600
O        1.15799000       0.67737000      25.84054000       0.02393600       0.03464700       0.00947400
O        3.96870000       1.08122000      24.78964000      -0.02245400       0.03187400      -0.00776800
O        1.53721000       2.57764000      23.97407000      -0.00415600      -0.00009100      -0.02955700
O        1.96901000       4.47715000      22.12820000       0.00354200      -0.00043700       0.02741600
O        1.47977000       6.41382000      23.75579000      -0.00015100      -0.00078300       0.01717100
O        3.65435000       0.04589000      27.34125000      -0.01464300      -0.04751700       0.01908500
O        3.36824000       3.67025000      26.09250000      -0.00482600      -0.01351700       0.00869300
O        3.80986000       6.10773000      24.78661000      -0.03119900       0.01934500       0.02160600
O        2.69069000       2.44370000      28.67939000      -0.02930100      -0.02614200       0.06997300
O        1.01314000       4.66514000      25.73465000       0.07382100       0.01239400       0.06538100
O        1.96602000       6.14785000      27.97473000      -0.01557800      -0.03649800       0.01032700
O        1.06272000       0.96127000      21.96881000      -0.01627800      -0.00102300       0.00442400
O        5.22689000       7.30837000      19.87079000       0.00304700      -0.00728400      -0.00562000
O        0.60716000       2.65309000      27.36949000       0.04826000      -0.04049500       0.03351000
O        0.09718000      -0.12061000      12.31794000       0.00482600       0.01351700      -0.00869300
O        3.29256000       6.27462000      12.67579000      -0.07382100      -0.01239400      -0.06538100
O        2.85825000       0.89655000      11.04095000      -0.04826000       0.04049500      -0.03351000
O        2.30743000       2.87228000      12.56991000      -0.02393600      -0.03464700      -0.00947400
O        2.33669000       6.46262000      16.28224000      -0.00354200       0.00043700      -0.02741600
O        0.77473000       1.10594000       9.73105000       0.02930100       0.02614200      -0.06997300
O        4.95706000       3.50376000      11.06919000       0.01464300       0.04751700      -0.01908500
O        2.33968000       4.79192000      10.43571000       0.01557800       0.03649800      -0.01032700
O        5.24010000       3.63390000      16.14485000      -0.03288600      -0.01835500       0.00120500
O        0.49585000       4.83204000      13.62383000       0.03119900      -0.01934500      -0.02160600
O        4.64271000       2.46842000      13.62081000       0.02245400      -0.03187400       0.00776800
O        4.80478000       1.12580000      17.35111000       0.02504400       0.01851000      -0.02446600
O        1.92821000       0.97200000      14.43637000       0.00415600       0.00009100       0.02955700
O        2.40269000       2.58838000      16.44163000       0.01627800       0.00102300      -0.00442400
O        2.82593000       4.52595000      14.65465000       0.00015100       0.00078300      -0.01717100
O        5.10959000       7.32925000      14.79589000      -0.00420300      -0.00033900      -0.01173000
Zr       5.08405000       2.65205000      25.44676000       0.06452500      -0.01488700       0.00996500
Zr       1.88378000       0.73281000      27.79154000       0.03125800       0.05304500       0.04234300
Zr       2.10688000       4.02953000      27.61621000       0.02011300       0.04775500       0.04424400
Zr       5.50675000       6.66509000      25.80297000      -0.00296400       0.02660400      -0.02855000
Zr       1.58163000       2.81683000      10.61890000      -0.03125800      -0.05304500      -0.04234300
Zr       3.52736000       0.89759000      12.96368000      -0.06452500       0.01488700      -0.00996500
Zr       3.94496000       4.27468000      12.60747000       0.00296400      -0.02660400       0.02855000
Zr       1.24642000       6.71014000      18.28305000       0.01217100      -0.02108600       0.02420900
Zr       3.08183000       0.54831000      16.37012000       0.01362000      -0.01176900       0.00636800
Zr       3.48191000       4.56559000      16.70678000       0.00985400      -0.01064100       0.03553300
Zr       0.82380000       6.37418000      21.70366000      -0.00985400       0.01064100      -0.03553300
Zr       2.59686000       4.55417000      24.20273000      -0.02787700      -0.01293100       0.02927600
Zr       2.21109000       0.52097000      23.85039000      -0.03553200      -0.03114300      -0.03562300
Zr       0.38359000       3.00133000      22.04032000      -0.01362000       0.01176900      -0.00636800
Zr       1.70885000       6.38560000      14.20771000       0.02787700       0.01293100      -0.02927600
Zr       0.83599000       2.69850000      17.96842000      -0.02145300      -0.01567200       0.01945800
Zr       2.62942000       0.85115000      20.44202000       0.02145300       0.01567200      -0.01945800
Zr       3.05929000       4.22963000      20.12739000      -0.01217100       0.02108600      -0.02420900
Zr       1.25432000       3.02868000      14.56005000       0.03553200       0.03114300       0.03562300
Zr       2.19882000       6.91024000      10.79423000      -0.02011300      -0.04775500      -0.04424400
