18
Lattice="23.027634 0.0 0.0 0.0 20.0 0.0 0.0 0.0 20.0" Properties=species:S:1:pos:R:3:forces:R:3 energy=-155.3830204 stress="-1.42126 0.35732 -0.36315 0.35732 -0.0291 -0.11073 -0.36315 -0.11073 -0.02716" pbc="T T T"
Zr       3.00567000      10.00064000      10.00040000       0.20333400       0.01106100      -0.01275900
Zr      14.01130000       9.70665000      10.29346000       0.09132000      -0.03297800       0.03359200
Zr      20.02396000      10.00197000       9.99955000      -0.30718500      -0.03016900       0.02840100
Zr       0.00102000       9.99863000       9.99839000       0.11650400      -0.06723700       0.06647200
Zr       5.99161000      10.21796000       9.78412000      -0.07603900      -0.06949500       0.06790400
Zr      17.00006000       9.95195000      10.04933000       0.15707700       0.02876400      -0.02862500
O        1.50353000      10.93151000       9.06921000      -0.03033600       0.02045200      -0.02236200
O       12.98470000      10.73041000       9.27017000       0.13130000       0.00781800      -0.00797200
O       18.49380000      10.90622000       9.09681000       0.06381900       0.06331800      -0.06372800
O        1.50337000       9.06756000      10.92965000      -0.27736700      -0.05945200       0.05949000
O        6.93190000       9.15646000      10.84441000       0.02906000      -0.02727100       0.02699500
O       18.53997000       9.05152000      10.94892000      -0.00060600      -0.03604100       0.03531500
O        4.48931000      11.01257000      10.84399000       0.05472300       0.12418500      -0.06110600
O       15.51917000      10.76683000      11.09096000      -0.11701000      -0.02766100       0.00008100
O       21.52806000      10.93026000      10.93092000       0.00978800       0.04728900       0.01784600
O        4.48961000       9.15856000       8.98792000       0.05442800       0.06290100      -0.12232700
O       15.51970000       8.91046000       9.23321000      -0.11590200       0.00137000       0.02633300
O       21.52440000       9.07012000       9.06684000       0.01309100      -0.01685400      -0.04355200
