18
Lattice="23.027634 0.0 0.0 0.0 20.0 0.0 0.0 0.0 20.0" Properties=species:S:1:pos:R:3:forces:R:3 energy=-155.39012489 stress="-1.19491 0.48724 -0.48805 0.48724 -0.38887 0.12189 -0.48805 0.12189 -0.38629" pbc="T T T"
Zr       3.00567000      10.00064000      10.00040000       0.28970200       0.05674200      -0.05551700
Zr      14.02567000       9.70062000      10.29951000      -0.11657100       0.01219100      -0.01310300
Zr      20.02396000      10.00197000       9.99955000      -0.14948700      -0.03506800       0.03303500
Zr       0.00102000       9.99863000       9.99839000       0.09106000      -0.06877000       0.06803500
Zr       5.99050000      10.21725000       9.78473000       0.12451100      -0.11284500       0.11464300
Zr      17.00977000       9.95576000      10.04553000       0.00075600       0.00942900      -0.00878000
O        1.50353000      10.93151000       9.06921000      -0.00033200       0.00680200      -0.00878900
O       13.00928000      10.73073000       9.26987000       0.13673700      -0.02606000       0.02598500
O       18.50416000      10.91282000       9.09015000      -0.01048200      -0.00952700       0.01144400
O        1.50337000       9.06756000      10.92965000      -0.25915600      -0.05540200       0.05535900
O        6.92825000       9.15079000      10.85002000      -0.05794400       0.05594900      -0.05607000
O       18.54516000       9.04776000      10.95265000      -0.08084300       0.05439700      -0.05450500
O        4.49370000      11.02274000      10.83661000      -0.06358100       0.05393600      -0.05990000
O       15.52303000      10.76727000      11.09026000       0.06284600      -0.03043100       0.00070300
O       21.52806000      10.93026000      10.93092000       0.01585800       0.04546900       0.01558000
O        4.49398000       9.16608000       8.97788000      -0.06382400       0.05854700      -0.05655500
O       15.52365000       8.91131000       9.23264000       0.06161600      -0.00073900       0.03015500
O       21.52440000       9.07012000       9.06684000       0.01913300      -0.01462000      -0.04172100
