18
Lattice="23.027634 0.0 0.0 0.0 20.0 0.0 0.0 0.0 20.0" Properties=species:S:1:pos:R:3:forces:R:3 energy=-155.39366052 stress="-0.98251 0.27018 -0.27387 0.27018 -0.15509 -0.00486 -0.27387 -0.00486 -0.15339" pbc="T T T"
Zr       3.00567000      10.00064000      10.00040000       0.29403700       0.09718400      -0.09733700
Zr      14.02815000       9.69757000      10.30254000      -0.00427300      -0.06857200       0.06729700
Zr      20.02396000      10.00197000       9.99955000      -0.16573300      -0.02097500       0.01893700
Zr       0.00102000       9.99863000       9.99839000       0.08051600      -0.06924700       0.06861100
Zr       5.99397000      10.21350000       9.78856000      -0.04508800       0.01963200      -0.02007000
Zr      17.00947000       9.95695000      10.04441000       0.15270200       0.06681600      -0.06799000
O        1.50353000      10.93151000       9.06921000       0.00600700       0.00200100      -0.00377800
O       13.02643000      10.73070000       9.26990000       0.02247500       0.06362300      -0.06376600
O       18.50884000      10.91610000       9.08687000      -0.03530800      -0.05080100       0.05314700
O        1.50337000       9.06756000      10.92965000      -0.26239900      -0.06161600       0.06167700
O        6.92672000       9.14808000      10.85269000       0.00766800      -0.04515700       0.04507800
O       18.54278000       9.04918000      10.95121000      -0.06092800       0.03970500      -0.03988100
O        4.49172000      11.03108000      10.83014000      -0.01236500      -0.00113800      -0.05597400
O       15.52797000      10.76456000      11.08882000      -0.00819200       0.01258100       0.07034800
O       21.52806000      10.93026000      10.93092000       0.02477000       0.04714700       0.01828200
O        4.49200000       9.17253000       8.96944000      -0.01290700       0.05521100       0.00089400
O       15.52858000       8.91280000       9.23525000      -0.00902900      -0.06920800      -0.01219400
O       21.52440000       9.07012000       9.06684000       0.02804800      -0.01718700      -0.04328100
