18
Lattice="23.027634 0.0 0.0 0.0 20.0 0.0 0.0 0.0 20.0" Properties=species:S:1:pos:R:3:forces:R:3 energy=-155.39780438 stress="-0.60927 0.36842 -0.37023 0.36842 -0.10903 -0.02598 -0.37023 -0.02598 -0.11376" pbc="T T T"
Zr       3.00567000      10.00064000      10.00040000       0.25954500       0.15580900      -0.15612400
Zr      14.03739000       9.69035000      10.30965000      -0.03240400      -0.02341000       0.02364700
Zr      20.02396000      10.00197000       9.99955000      -0.10046400      -0.03623700       0.03447500
Zr       0.00102000       9.99863000       9.99839000       0.08120300      -0.07230400       0.07169900
Zr       5.99479000      10.21058000       9.79140000       0.02227300       0.05137200      -0.04969700
Zr      17.01286000       9.96739000      10.03401000       0.01624600      -0.02524500       0.02595400
O        1.50353000      10.93151000       9.06921000       0.01257000      -0.00663900       0.00506400
O       13.05914000      10.73536000       9.26524000       0.00892900       0.03306200      -0.03271900
O       18.51604000      10.91811000       9.08501000      -0.00113600       0.03242800      -0.03254900
O        1.50337000       9.06756000      10.92965000      -0.27580200      -0.07052000       0.07052800
O        6.91993000       9.14026000      10.86046000      -0.03826900      -0.02243700       0.02212000
O       18.53638000       9.05429000      10.94607000      -0.04752600       0.02945100      -0.02973700
O        4.49026000      11.04211000      10.81509000      -0.00066800      -0.00507600       0.03383700
O       15.53357000      10.76016000      11.09712000       0.02117800      -0.01528000       0.01750500
O       21.52806000      10.93026000      10.93092000       0.02564600       0.04707300       0.02135400
O        4.49057000       9.18773000       8.95829000      -0.00087300      -0.03367700       0.00303900
O       15.53423000       8.90462000       9.23958000       0.02059500      -0.01818900       0.01488800
O       21.52440000       9.07012000       9.06684000       0.02895700      -0.02018200      -0.04328500
