18
Lattice="23.027634 0.0 0.0 0.0 20.0 0.0 0.0 0.0 20.0" Properties=species:S:1:pos:R:3:forces:R:3 energy=-155.39852674 stress="-0.7306 0.3392 -0.34238 0.3392 -0.16762 -0.08252 -0.34238 -0.08252 -0.16883" pbc="T T T"
Zr       3.00567000      10.00064000      10.00040000       0.28405600       0.15735800      -0.15802900
Zr      14.03780000       9.68966000      10.31034000      -0.01116700      -0.01553600       0.01538100
Zr      20.02396000      10.00197000       9.99955000      -0.10968500      -0.02111900       0.01924300
Zr       0.00102000       9.99863000       9.99839000       0.08444000      -0.07208800       0.07137500
Zr       5.99633000      10.21181000       9.79019000      -0.03248900       0.04228200      -0.04106800
Zr      17.01241000       9.96855000      10.03287000       0.01774800      -0.01336800       0.01289900
O        1.50353000      10.93151000       9.06921000       0.01155700      -0.00731800       0.00568600
O       13.06391000      10.73688000       9.26372000       0.01166800       0.02444300      -0.02455500
O       18.51702000      10.91947000       9.08367000       0.00389200       0.02264500      -0.02115000
O        1.50337000       9.06756000      10.92965000      -0.27724900      -0.07079500       0.07065800
O        6.91580000       9.13939000      10.86130000      -0.02423300      -0.02567800       0.02537900
O       18.53400000       9.05620000      10.94414000      -0.03360000       0.01005100      -0.01032500
O        4.49062000      11.04242000      10.81460000       0.00790600      -0.00533100       0.02254700
O       15.53453000      10.75900000      11.10036000       0.00436900      -0.03505200      -0.00723100
O       21.52806000      10.93026000      10.93092000       0.02352600       0.04604500       0.02171700
O        4.49094000       9.18828000       8.95791000       0.00767900      -0.02296000       0.00444600
O       15.53520000       8.90135000       9.24074000       0.00473600       0.00705600       0.03540200
O       21.52440000       9.07012000       9.06684000       0.02684500      -0.02063300      -0.04237700
