18
Lattice="23.027634 0.0 0.0 0.0 20.0 0.0 0.0 0.0 20.0" Properties=species:S:1:pos:R:3:forces:R:3 energy=-155.39977081 stress="-0.72778 0.29418 -0.29581 0.29418 -0.20452 0.01739 -0.29581 0.01739 -0.20407" pbc="T T T"
Zr       3.00567000      10.00064000      10.00040000       0.30248000       0.15212900      -0.15374900
Zr      14.03788000       9.68703000      10.31298000      -0.00294000       0.00077100      -0.00089600
Zr      20.02396000      10.00197000       9.99955000      -0.13066800      -0.00987500       0.00822100
Zr       0.00102000       9.99863000       9.99839000       0.08480200      -0.07135700       0.07046600
Zr       5.99477000      10.21583000       9.78625000      -0.01887600      -0.01073800       0.01069200
Zr      17.01238000       9.97297000      10.02845000      -0.00453400      -0.01189900       0.01247300
O        1.50353000      10.93151000       9.06921000       0.01243600      -0.00847900       0.00691600
O       13.08075000      10.74273000       9.25788000       0.01422700      -0.00030500       0.00021900
O       18.52232000      10.92356000       9.07979000       0.01218200      -0.00154000       0.00265900
O        1.50337000       9.06756000      10.92965000      -0.27800800      -0.07012200       0.06972200
O        6.89932000       9.13662000      10.86395000      -0.01184600      -0.00071600       0.00001900
O       18.52728000       9.05944000      10.94084000       0.00974800      -0.00144800       0.00167800
O        4.49117000      11.04293000      10.81446000      -0.01548400       0.00524700      -0.00004800
O       15.53606000      10.74993000      11.10668000      -0.00431900       0.00081800      -0.00257000
O       21.52806000      10.93026000      10.93092000       0.02279300       0.04421600       0.02212600
O        4.49147000       9.18860000       8.95718000      -0.01515700       0.00059200      -0.00637800
O       15.53676000       8.89505000       9.24985000      -0.00300300       0.00382000      -0.00073100
O       21.52440000       9.07012000       9.06684000       0.02616800      -0.02111600      -0.04082100
