18
Lattice="23.027634 0.0 0.0 0.0 20.0 0.0 0.0 0.0 20.0" Properties=species:S:1:pos:R:3:forces:R:3 energy=-155.40004073 stress="-0.55853 0.27209 -0.27517 0.27209 -0.19448 -0.02656 -0.27517 -0.02656 -0.19717" pbc="T T T"
Zr       3.00567000      10.00064000      10.00040000       0.24642200       0.15265900      -0.15355400
Zr      14.03794000       9.68745000      10.31246000       0.01565700      -0.01619700       0.01565000
Zr      20.02396000      10.00197000       9.99955000      -0.13239600      -0.01488800       0.01376000
Zr       0.00102000       9.99863000       9.99839000       0.08798900      -0.07198500       0.07123900
Zr       5.99212000      10.21474000       9.78739000      -0.00728800       0.00028300       0.00042000
Zr      17.01225000       9.97080000      10.03108000       0.00911000      -0.01399300       0.01432400
O        1.50353000      10.93151000       9.06921000       0.01078300      -0.00790500       0.00677300
O       13.08753000      10.74541000       9.25524000      -0.01260700       0.02135800      -0.02120600
O       18.52019000      10.92222000       9.08149000       0.01112000       0.00206700      -0.00140200
O        1.50337000       9.06756000      10.92965000      -0.28103400      -0.07123400       0.07082900
O        6.89185000       9.13368000      10.86662000      -0.00101200      -0.00730200       0.00692600
O       18.52915000       9.05801000      10.94230000       0.00796500       0.00277100      -0.00273800
O        4.48881000      11.04433000      10.81449000       0.00522400      -0.00121000      -0.00302100
O       15.53599000      10.74903000      11.10841000      -0.00569400      -0.00681700      -0.00402200
O       21.52806000      10.93026000      10.93092000       0.02126100       0.04482700       0.02180300
O        4.48909000       9.18890000       8.95555000       0.00517200       0.00348000       0.00000500
O       15.53705000       8.89389000       9.25055000      -0.00550800       0.00461700       0.00565700
O       21.52440000       9.07012000       9.06684000       0.02483500      -0.02053200      -0.04144300
