18
Lattice="23.027634 0.0 0.0 0.0 20.0 0.0 0.0 0.0 20.0" Properties=species:S:1:pos:R:3:forces:R:3 energy=-155.40011767 stress="-0.54988 0.29554 -0.29675 0.29554 -0.19947 -0.00997 -0.29675 -0.00997 -0.20345" pbc="T T T"
Zr       3.00567000      10.00064000      10.00040000       0.25145500       0.15435800      -0.15441600
Zr      14.03828000       9.68793000      10.31193000       0.00060500      -0.00227200       0.00095700
Zr      20.02396000      10.00197000       9.99955000      -0.12816200      -0.01240900       0.01164000
Zr       0.00102000       9.99863000       9.99839000       0.08853100      -0.07250200       0.07160100
Zr       5.99245000      10.21443000       9.78768000      -0.00472500      -0.00297500       0.00471300
Zr      17.01253000       9.96944000      10.03268000       0.00625900      -0.01708500       0.01682300
O        1.50353000      10.93151000       9.06921000       0.01061000      -0.00809800       0.00702100
O       13.08941000      10.74711000       9.25358000      -0.00032800       0.00682100      -0.00689300
O       18.51844000      10.92140000       9.08255000       0.01669700       0.00565300      -0.00488900
O        1.50337000       9.06756000      10.92965000      -0.28158700      -0.07139900       0.07071000
O        6.88899000       9.13192000      10.86825000       0.00312100      -0.00563300       0.00499800
O       18.53088000       9.05733000      10.94306000       0.00220100       0.00150900      -0.00178400
O        4.48920000      11.04417000      10.81391000       0.00010400       0.00610800       0.00284200
O       15.53604000      10.74865000      11.10933000      -0.00506200      -0.01108200      -0.00639300
O       21.52806000      10.93026000      10.93092000       0.02056500       0.04481000       0.02152400
O        4.48943000       9.18973000       8.95554000       0.00046200      -0.00330400      -0.00793400
O       15.53730000       8.89328000       9.25075000      -0.00503300       0.00787500       0.01117600
O       21.52440000       9.07012000       9.06684000       0.02428600      -0.02037400      -0.04169700
