18
Lattice="23.027634 0.0 0.0 0.0 20.0 0.0 0.0 0.0 20.0" Properties=species:S:1:pos:R:3:forces:R:3 energy=-155.40022381 stress="-0.54468 0.28563 -0.28867 0.28563 -0.21033 0.01639 -0.28867 0.01639 -0.21594" pbc="T T T"
Zr       3.00567000      10.00064000      10.00040000       0.24641200       0.15601600      -0.15790500
Zr      14.03764000       9.68846000      10.31121000      -0.00826300       0.00464400      -0.00420900
Zr      20.02396000      10.00197000       9.99955000      -0.10945800      -0.01761100       0.01714700
Zr       0.00102000       9.99863000       9.99839000       0.08581400      -0.07266000       0.07160000
Zr       5.99218000      10.21323000       9.78896000       0.00488500      -0.00354900       0.00380100
Zr      17.01324000       9.96743000      10.03493000      -0.00508700      -0.00260500       0.00342200
O        1.50353000      10.93151000       9.06921000       0.01253700      -0.00831800       0.00741800
O       13.09077000      10.74891000       9.25179000       0.00520000      -0.00091300       0.00092000
O       18.51880000      10.92094000       9.08330000      -0.00359700      -0.00074400       0.00152400
O        1.50337000       9.06756000      10.92965000      -0.28002800      -0.07126200       0.07036400
O        6.88781000       9.13001000      10.86996000      -0.00293400      -0.00159100       0.00115000
O       18.53222000       9.05630000      10.94409000       0.00178600      -0.00116300       0.00114600
O        4.48903000      11.04459000      10.81397000      -0.00024000      -0.00062400       0.00170000
O       15.53565000      10.74693000      11.10991000       0.00230900      -0.00143100       0.00317700
O       21.52806000      10.93026000      10.93092000       0.02202600       0.04594200       0.02108600
O        4.48932000       9.18991000       8.95483000      -0.00042600      -0.00143900       0.00014700
O       15.53706000       8.89306000       9.25235000       0.00317700      -0.00269000       0.00064200
O       21.52440000       9.07012000       9.06684000       0.02588700      -0.02000200      -0.04313100
