18
Lattice="23.027634 0.0 0.0 0.0 20.0 0.0 0.0 0.0 20.0" Properties=species:S:1:pos:R:3:forces:R:3 energy=-155.40024225 stress="-0.52259 0.27133 -0.27441 0.27133 -0.18195 -0.00263 -0.27441 -0.00263 -0.18913" pbc="T T T"
Zr       3.00567000      10.00064000      10.00040000       0.24777300       0.15586500      -0.15799200
Zr      14.03742000       9.68888000      10.31079000      -0.00171000      -0.00882700       0.00890500
Zr      20.02396000      10.00197000       9.99955000      -0.11726100      -0.01490500       0.01475100
Zr       0.00102000       9.99863000       9.99839000       0.08688200      -0.07281900       0.07177900
Zr       5.99235000      10.21271000       9.78951000      -0.00184800       0.00203800      -0.00218000
Zr      17.01293000       9.96673000      10.03573000       0.00263400       0.00384300      -0.00258500
O        1.50353000      10.93151000       9.06921000       0.01190500      -0.00837700       0.00761600
O       13.09134000      10.74929000       9.25140000      -0.00286700       0.00970400      -0.00993500
O       18.51815000      10.92079000       9.08360000      -0.00126800      -0.00412400       0.00450800
O        1.50337000       9.06756000      10.92965000      -0.28038000      -0.07142000       0.07050900
O        6.88748000       9.12940000      10.87047000       0.00117200      -0.00644200       0.00621000
O       18.53234000       9.05621000      10.94418000       0.00645000      -0.00538100       0.00537400
O        4.48901000      11.04443000      10.81416000       0.00071600      -0.00125800       0.00192700
O       15.53562000      10.74654000      11.11054000      -0.00053600      -0.00049900       0.00137100
O       21.52806000      10.93026000      10.93092000       0.02193900       0.04564900       0.02117500
O        4.48928000       9.18980000       8.95488000       0.00101900      -0.00090300       0.00149300
O       15.53711000       8.89252000       9.25275000      -0.00049000      -0.00211600      -0.00003400
O       21.52440000       9.07012000       9.06684000       0.02586900      -0.02002700      -0.04289200
