18
Lattice="23.027634 0.0 0.0 0.0 20.0 0.0 0.0 0.0 20.0" Properties=species:S:1:pos:R:3:forces:R:3 energy=-155.40024943 stress="-0.54208 0.27032 -0.27346 0.27032 -0.19284 -0.0052 -0.27346 -0.0052 -0.19885" pbc="T T T"
Zr       3.00567000      10.00064000      10.00040000       0.24706400       0.15576400      -0.15804300
Zr      14.03723000       9.68904000      10.31065000       0.00229600      -0.00997000       0.00950800
Zr      20.02396000      10.00197000       9.99955000      -0.12228800      -0.01411300       0.01410100
Zr       0.00102000       9.99863000       9.99839000       0.08628000      -0.07269400       0.07159500
Zr       5.99246000      10.21243000       9.78980000      -0.00556800       0.00162300      -0.00215700
Zr      17.01268000       9.96636000      10.03617000       0.01436900       0.00556500      -0.00457900
O        1.50353000      10.93151000       9.06921000       0.01213500      -0.00813900       0.00739200
O       13.09165000      10.74962000       9.25106000      -0.00297500       0.01026700      -0.01046500
O       18.51774000      10.92066000       9.08382000      -0.00194000      -0.00587800       0.00633400
O        1.50337000       9.06756000      10.92965000      -0.27997100      -0.07127400       0.07028900
O        6.88729000       9.12897000      10.87084000       0.00135000      -0.00631400       0.00610600
O       18.53249000       9.05610000      10.94430000       0.00746300      -0.00615900       0.00629400
O        4.48900000      11.04433000      10.81430000       0.00269400      -0.00189500       0.00119500
O       15.53564000      10.74631000      11.11094000      -0.00610600      -0.00125600       0.00108500
O       21.52806000      10.93026000      10.93092000       0.02223900       0.04580600       0.02099000
O        4.48925000       9.18971000       8.95493000       0.00313300       0.00003800       0.00227400
O       15.53719000       8.89218000       9.25297000      -0.00638900      -0.00149800       0.00123400
O       21.52440000       9.07012000       9.06684000       0.02621300      -0.01987300      -0.04315200
