18
Lattice="23.027634 0.0 0.0 0.0 20.0 0.0 0.0 0.0 20.0" Properties=species:S:1:pos:R:3:forces:R:3 energy=-155.40034954 stress="-0.60562 0.28561 -0.29076 0.28561 -0.21343 -0.01323 -0.29076 -0.01323 -0.21991" pbc="T T T"
Zr       3.00567000      10.00064000      10.00040000       0.25175800       0.15453000      -0.15513100
Zr      14.03560000       9.69011000      10.30949000       0.00157100      -0.00773800       0.00644100
Zr      20.02396000      10.00197000       9.99955000      -0.12280100      -0.02234200       0.02383800
Zr       0.00102000       9.99863000       9.99839000       0.08840500      -0.07319800       0.07202600
Zr       5.99290000      10.20922000       9.79308000       0.00117200       0.00535700      -0.00436000
Zr      17.01279000       9.96325000      10.04000000      -0.02064200      -0.01827100       0.01775200
O        1.50353000      10.93151000       9.06921000       0.01113400      -0.00764000       0.00747000
O       13.09543000      10.75341000       9.24720000       0.00344900       0.00729800      -0.00706400
O       18.51392000      10.91841000       9.08698000       0.00989400       0.00757300      -0.00877100
O        1.50337000       9.06756000      10.92965000      -0.27880600      -0.07049900       0.06913800
O        6.88509000       9.12431000      10.87481000       0.00338700      -0.00677300       0.00695700
O       18.53559000       9.05386000      10.94660000       0.00162600       0.00326400      -0.00266100
O        4.48947000      11.04283000      10.81581000      -0.00457100      -0.00208100       0.00209700
O       15.53416000      10.74331000      11.11451000       0.00641900      -0.00341200      -0.00800300
O       21.52806000      10.93026000      10.93092000       0.02005700       0.04559900       0.02013700
O        4.48971000       9.18894000       8.95594000      -0.00341800      -0.00346300       0.00179200
O       15.53628000       8.88918000       9.25598000       0.00686500       0.01063700       0.00180100
O       21.52440000       9.07012000       9.06684000       0.02450100      -0.01884200      -0.04345800
