18
Lattice="23.027634 0.0 0.0 0.0 20.0 0.0 0.0 0.0 20.0" Properties=species:S:1:pos:R:3:forces:R:3 energy=-155.40053442 stress="-0.67012 0.29142 -0.29599 0.29142 -0.21358 0.03869 -0.29599 0.03869 -0.21922" pbc="T T T"
Zr       3.00567000      10.00064000      10.00040000       0.24951300       0.14926600      -0.15014800
Zr      14.03268000       9.69145000      10.30778000      -0.00969300       0.00414700      -0.00317000
Zr      20.02396000      10.00197000       9.99955000      -0.13514900      -0.02154100       0.02509100
Zr       0.00102000       9.99863000       9.99839000       0.08467900      -0.07336900       0.07194100
Zr       5.99381000      10.20405000       9.79847000       0.00292700      -0.00882200       0.00951200
Zr      17.01175000       9.95585000      10.04855000       0.02084600       0.00493500      -0.00286500
O        1.50353000      10.93151000       9.06921000       0.01172000      -0.00549000       0.00609600
O       13.10310000      10.75997000       9.24058000       0.01543400      -0.00605100       0.00659600
O       18.50879000      10.91549000       9.09123000      -0.00530500      -0.00362500       0.00257700
O        1.50337000       9.06756000      10.92965000      -0.27441300      -0.06874700       0.06673000
O        6.88143000       9.11611000      10.88181000      -0.00429000       0.00780800      -0.00767600
O       18.54082000       9.05058000      10.95002000      -0.00815000      -0.00159700       0.00208800
O        4.48990000      11.04003000      10.81860000      -0.00176900      -0.00070700       0.00145000
O       15.53198000      10.73778000      11.11931000       0.00320500       0.00402100       0.00451300
O       21.52806000      10.93026000      10.93092000       0.02216400       0.04713000       0.01856200
O        4.49024000       9.18720000       8.95795000      -0.00202600      -0.00291200       0.00075200
O       15.53511000       8.88553000       9.26147000       0.00300300      -0.00720700      -0.00612900
O       21.52440000       9.07012000       9.06684000       0.02730300      -0.01723700      -0.04591900
