18
Lattice="23.027634 0.0 0.0 0.0 20.0 0.0 0.0 0.0 20.0" Properties=species:S:1:pos:R:3:forces:R:3 energy=-155.40059815 stress="-0.6176 0.27412 -0.27738 0.27412 -0.22051 -0.00208 -0.27738 -0.00208 -0.22197" pbc="T T T"
Zr       3.00567000      10.00064000      10.00040000       0.23903400       0.14495500      -0.14655400
Zr      14.03322000       9.69164000      10.30741000       0.00413400      -0.00802700       0.00879300
Zr      20.02396000      10.00197000       9.99955000      -0.13776600      -0.03298400       0.03689600
Zr       0.00102000       9.99863000       9.99839000       0.08771800      -0.07311700       0.07168100
Zr       5.99350000      10.20198000       9.80048000       0.00097200      -0.00188500       0.00162800
Zr      17.01226000       9.95414000      10.05062000       0.00127400      -0.00696900       0.00726700
O        1.50353000      10.93151000       9.06921000       0.00952600      -0.00423200       0.00495900
O       13.10836000      10.76189000       9.23881000       0.00211300       0.00687600      -0.00710400
O       18.50694000      10.91402000       9.09282000       0.00682600       0.00581800      -0.00649300
O        1.50337000       9.06756000      10.92965000      -0.27456400      -0.06770600       0.06582900
O        6.88047000       9.11385000      10.88376000      -0.00100500       0.00171500      -0.00174100
O       18.54192000       9.04909000      10.95172000       0.00398600       0.00583800      -0.00538300
O        4.48958000      11.03893000      10.82003000       0.00255100      -0.00139800      -0.00080900
O       15.53235000      10.73665000      11.12147000       0.00453200      -0.00314800      -0.00458300
O       21.52806000      10.93026000      10.93092000       0.01994700       0.04762400       0.01704800
O        4.48992000       9.18569000       8.95901000       0.00159900      -0.00102400       0.00227100
O       15.53583000       8.88352000       9.26253000       0.00386700       0.00339800       0.00265800
O       21.52440000       9.07012000       9.06684000       0.02525600      -0.01573400      -0.04636200
