17
Lattice="18.027634 0.0 0.0 0.0 20.0 0.0 0.0 0.0 20.0" Properties=species:S:1:pos:R:3:forces:R:3 energy=-139.4914552 stress="-8.16794 -4.15487 2.0646 -4.15487 -1.82583 -0.48121 2.0646 -0.48121 3.13628" pbc="T T T"
Zr       3.03469000      10.15139000       9.80512000      -1.61148700       0.27082300       0.06371500
Zr       8.36547000       8.10685000       9.66443000       4.97190500      -0.18834100      -2.22145400
Zr      15.04922000      10.16120000       9.79653000      -2.82709700      -0.08175900       0.18495900
Zr       0.02000000      10.22297000       9.78129000      -1.11469200       0.07472500       0.02541600
Zr       6.01203000       9.91722000       9.85913000      -2.62245800       2.92433300      -2.30903000
Zr      11.95420000       9.93384000       9.86364000      -0.07955300       3.40663600       1.17380700
O        1.53772000      11.12586000       8.86894000       0.65553800      -0.07112100       0.02905000
O       13.41222000      10.97824000       8.92020000       0.28151500      -0.66876800      -0.03587700
O        1.47565000       9.26734000      10.72544000       0.66233700      -0.02622900      -0.00915400
O        7.17880000       8.85769000      10.81065000       0.25936600      -1.51287800       3.71134000
O       13.59135000       9.13925000      10.76867000       0.07644800       0.21517900      -0.26667800
O        4.56820000      11.00044000      10.73783000       0.36433100      -0.13353200       0.02717600
O       10.20771000      11.94527000      10.55914000       1.27949700      -2.31729700      -0.44730200
O       16.50386000      11.13459000      10.70960000       0.82716600       0.07232900       0.03969700
O        4.47402000       9.13905000       8.88122000       0.59695100      -0.15122100       0.20010300
O       10.79116000       8.78381000       8.99680000      -2.57939900      -1.67393700      -0.01008200
O       16.53375000       9.27877000       8.85074000       0.85963200      -0.13894200      -0.15568600
