17
Lattice="18.027634 0.0 0.0 0.0 20.0 0.0 0.0 0.0 20.0" Properties=species:S:1:pos:R:3:forces:R:3 energy=-140.33848488 stress="-25.71761 1.73472 0.15409 1.73472 -11.55258 -0.68887 0.15409 -0.68887 -0.47235" pbc="T T T"
Zr       3.01911000      10.15990000       9.79115000       0.00904100      -0.01500200      -0.01213600
Zr       8.75392000       7.60357000       9.38422000       1.05184600       1.92712300       0.07694800
Zr      14.90828000      10.13155000       9.78414000      -0.79264600       0.12956400      -0.18161400
Zr      -0.03778000      10.22587000       9.78017000       0.01014600      -0.04531100      -0.02192900
Zr       6.05382000       9.91926000       9.72486000      -0.21209700      -0.30335400       0.01122800
Zr      11.76027000      10.15221000       9.74236000      -0.32216600       1.22232600      -0.14642200
O        1.54545000      11.11930000       8.86913000      -0.11115700      -0.04751400       0.06734600
O       13.31646000      10.92953000       8.80306000       0.17198700      -0.10475300      -0.27863100
O        1.48966000       9.27930000      10.71064000      -0.10744900       0.06067400      -0.02549200
O        7.36359000       8.52225000      10.36003000       0.29182400      -0.12389700      -0.36055100
O       13.31252000       9.27259000      10.68755000      -0.28987000       0.29979400       0.26363700
O        4.65473000      10.97266000      10.65636000       0.18153300      -0.09713800       0.00860100
O       10.13757000      12.67595000       9.96398000       1.29956700      -2.57071900       0.04059400
O       16.44178000      11.09974000      10.68695000      -0.25499400       0.00421900      -0.00790500
O        4.51368000       9.14964000       8.84150000       0.06396700       0.02476000      -0.08058100
O       10.41598000       8.67948000       9.12977000      -0.75266600      -0.24483500       0.59499600
O       16.49744000       9.27594000       8.86327000      -0.23686700      -0.11593700       0.05191000
