17
Lattice="18.027634 0.0 0.0 0.0 20.0 0.0 0.0 0.0 20.0" Properties=species:S:1:pos:R:3:forces:R:3 energy=-139.20707464 stress="-14.47735 -0.61386 1.78419 -0.61386 -5.25257 -0.45329 1.78419 -0.45329 0.43294" pbc="T T T"
Zr       3.05309000      10.16450000       9.79810000      -0.27288000       0.02806200       0.00995900
Zr       8.70037000       7.76992000       9.43563000       0.88699400       1.00424700      -0.05395500
Zr      14.99018000      10.12576000       9.79948000      -0.72744800      -0.06070100       0.00409600
Zr       0.02082000      10.23280000       9.77946000      -0.58008100      -0.01352500      -0.01068300
Zr       6.06337000       9.96057000       9.78072000      -0.12067100      -0.15949000       0.02978300
Zr      11.92905000       9.82247000       9.80828000      -1.00001600       2.43494100      -0.81964700
O        1.54837000      11.12447000       8.86771000       0.16415600      -0.00507400       0.02833300
O       13.35293000      10.85727000       8.86496000       0.05593600      -0.38235000      -0.04067200
O        1.48658000       9.27955000      10.71347000       0.15003600       0.02449700       0.00360500
O        7.33529000       8.59792000      10.50278000       0.15965200       0.02139900      -0.20013100
O       13.40289000       9.11197000      10.70761000       1.32042200      -0.73528600       0.91168800
O        4.62102000      11.01501000      10.67930000       0.23567600      -0.06583900       0.01476800
O        9.88793000      12.87135000      10.16162000       0.44697000      -1.26382400       0.00437500
O       16.46514000      11.10349000      10.69841000       0.05778700       0.06027500       0.01792700
O        4.53133000       9.17063000       8.86704000       0.16395300       0.02278900      -0.10881500
O       10.45711000       8.66050000       9.13489000      -1.02756900      -0.77575400       0.25463000
O       16.50984000       9.29130000       8.85417000       0.08708300      -0.13437000      -0.04526000
