17
Lattice="18.027634 0.0 0.0 0.0 20.0 0.0 0.0 0.0 20.0" Properties=species:S:1:pos:R:3:forces:R:3 energy=-139.9196477 stress="-20.93581 1.95127 0.14966 1.95127 -8.74257 -0.66076 0.14966 -0.66076 -0.58166" pbc="T T T"
Zr       3.03330000      10.16438000       9.79395000      -0.17038500      -0.00008200       0.00396700
Zr       8.76474000       7.69643000       9.39856000       0.24493000       1.08031700       0.16787500
Zr      14.92791000      10.11199000       9.79660000      -0.13030300      -0.04358800      -0.04044300
Zr      -0.02284000      10.22835000       9.77819000      -0.24079400      -0.02983100       0.00340100
Zr       6.05317000       9.93173000       9.75244000       0.09422100      -0.16088400      -0.01468800
Zr      11.83210000      10.05186000       9.77155000      -0.24197000       0.81541200       0.03629100
O        1.54492000      11.12032000       8.87282000       0.00003800      -0.00093300       0.02100100
O       13.34337000      10.86459000       8.80747000      -0.10488500      -0.00841600      -0.22622500
O        1.48658000       9.28475000      10.71019000       0.00614000       0.03070400      -0.01311800
O        7.36864000       8.56768000      10.41527000       0.31373900      -0.10517100      -0.31689400
O       13.36974000       9.18267000      10.71442000      -0.45004500       0.47125900       0.03301500
O        4.64935000      10.98807000      10.66929000       0.04858300      -0.08319600       0.03613500
O        9.99531000      12.76723000      10.05056000       0.96962800      -1.95152500      -0.00383500
O       16.44210000      11.10110000      10.69115000      -0.12316500      -0.06303600      -0.05908700
O        4.52753000       9.16458000       8.84510000      -0.07549000      -0.01376300      -0.08989100
O       10.43337000       8.66371000       9.16322000      -0.06772900       0.16974100       0.38839600
O       16.49378000       9.27500000       8.86031000      -0.07251400      -0.10700700       0.07410200
