17
Lattice="18.027634 0.0 0.0 0.0 20.0 0.0 0.0 0.0 20.0" Properties=species:S:1:pos:R:3:forces:R:3 energy=-139.96151902 stress="-21.34623 1.75445 0.00803 1.75445 -8.85404 -0.7054 0.00803 -0.7054 -0.49973" pbc="T T T"
Zr       3.02673000      10.16392000       9.79382000       0.13598800       0.01298300      -0.00652700
Zr       8.76490000       7.69109000       9.39794000       0.44237200       1.09810400       0.07974500
Zr      14.93051000      10.11299000       9.79520000      -0.51497400      -0.07938700      -0.03811300
Zr      -0.03293000      10.22795000       9.77849000       0.22330700      -0.02677100      -0.01139300
Zr       6.06043000       9.92801000       9.75114000      -0.29905700      -0.08585400      -0.07551300
Zr      11.83099000      10.06555000       9.77039000      -0.43471700       0.77558700       0.03307600
O        1.54719000      11.12031000       8.87282000      -0.17863900      -0.00857800       0.02827500
O       13.33948000      10.86474000       8.80379000       0.06469500       0.03070200      -0.25007100
O        1.48919000       9.28539000      10.70961000      -0.17842400       0.02292500      -0.00259200
O        7.37283000       8.56458000      10.40597000       0.26689800      -0.10686900      -0.20668300
O       13.35912000       9.18974000      10.71275000      -0.29110100       0.49326300       0.04723000
O        4.64972000      10.98795000      10.66991000       0.10611200      -0.17666200      -0.03524000
O       10.00357000      12.75940000      10.04201000       1.00403300      -1.99050700       0.00081900
O       16.44062000      11.09931000      10.68961000      -0.15141600       0.00553600       0.00049100
O        4.52433000       9.16277000       8.84169000       0.04017500       0.05630200       0.00935500
O       10.43495000       8.66660000       9.16567000      -0.14296400       0.13477900       0.40551000
O       16.49262000       9.27456000       8.86180000      -0.09228800      -0.15555300       0.02163300
