17
Lattice="18.027634 0.0 0.0 0.0 20.0 0.0 0.0 0.0 20.0" Properties=species:S:1:pos:R:3:forces:R:3 energy=-139.72665408 stress="-19.82148 1.36123 0.09786 1.36123 -8.21416 -0.69139 0.09786 -0.69139 -0.55433" pbc="T T T"
Zr       3.03793000      10.16359000       9.79477000      -0.23040500       0.02510900      -0.00412300
Zr       8.74224000       7.70864000       9.40758000       0.35928100       0.99354000       0.08681600
Zr      14.94022000      10.12217000       9.79994000      -0.11666500      -0.12215700       0.00001600
Zr      -0.01972000      10.23028000       9.77886000       0.04677900      -0.02562400      -0.01178200
Zr       6.05720000       9.93725000       9.76097000      -0.04688300      -0.13044400      -0.03238100
Zr      11.85847000       9.99999000       9.77122000      -0.43073300       0.72022500       0.04815100
O        1.54888000      11.12040000       8.87053000      -0.03692600      -0.02467300       0.05070100
O       13.34320000      10.86826000       8.82918000      -0.02864800       0.01529000      -0.30284000
O        1.49008000       9.28332000      10.71053000      -0.04437600       0.05087600      -0.02619500
O        7.35355000       8.56934000      10.43748000       0.27594000      -0.06279800      -0.24938300
O       13.39129000       9.15267000      10.70823000      -0.32420100       0.41143100       0.02793700
O        4.64318000      10.99879000      10.67006000       0.11634600      -0.12579400       0.00595200
O        9.97173000      12.80540000      10.07705000       0.82582600      -1.76188200      -0.00888500
O       16.45424000      11.10523000      10.69579000      -0.18356800      -0.04109000      -0.03026600
O        4.52997000       9.16256000       8.85154000       0.01869300       0.01927700      -0.05875400
O       10.42561000       8.64961000       9.14431000      -0.05631100       0.16575900       0.44216900
O       16.49743000       9.28597000       8.85560000      -0.14414900      -0.10704700       0.06286600
