17
Lattice="18.027634 0.0 0.0 0.0 20.0 0.0 0.0 0.0 20.0" Properties=species:S:1:pos:R:3:forces:R:3 energy=-140.35012082 stress="-23.45223 2.63754 0.17416 2.63754 -10.11212 -0.62173 0.17416 -0.62173 -0.5021" pbc="T T T"
Zr       3.02785000      10.16429000       9.79239000      -0.31332800       0.00970200       0.00227300
Zr       8.80121000       7.66250000       9.38142000       0.36035500       1.30111100       0.18545400
Zr      14.89987000      10.10310000       9.78770000      -0.18066200      -0.02228500      -0.05272600
Zr      -0.04158000      10.22394000       9.77806000      -0.11566100      -0.04087100      -0.00460300
Zr       6.05174000       9.91768000       9.73448000       0.08743300      -0.18797600      -0.00129200
Zr      11.78800000      10.15857000       9.76562000      -0.43240000       0.90278100      -0.06234100
O        1.53847000      11.12028000       8.87527000      -0.00615100      -0.03421200       0.04184900
O       13.33855000      10.86348000       8.77112000      -0.07925800       0.08477200      -0.20711000
O        1.48228000       9.28679000      10.70940000       0.01079800       0.03294900      -0.02345900
O        7.39648000       8.55441000      10.36219000       0.25596400      -0.11241500      -0.31754100
O       13.31620000       9.24381000      10.71714000      -0.40990400       0.57468600       0.11395300
O        4.65991000      10.97115000      10.66658000       0.06503800      -0.07793300       0.03100000
O       10.05579000      12.69252000       9.99003000       1.31182100      -2.38495500       0.02118400
O       16.42344000      11.09313000      10.68315000      -0.17900100      -0.03566500      -0.06555900
O        4.51959000       9.16541000       8.83187000      -0.07097900      -0.04675500      -0.09513700
O       10.44254000       8.68788000       9.19349000      -0.19026400       0.14969900       0.36209100
O       16.48616000       9.25802000       8.86845000      -0.11380200      -0.11263400       0.07196300
