17
Lattice="18.027634 0.0 0.0 0.0 20.0 0.0 0.0 0.0 20.0" Properties=species:S:1:pos:R:3:forces:R:3 energy=-139.97081084 stress="-21.34895 1.61884 0.13277 1.61884 -8.63489 -1.24054 0.13277 -1.24054 -0.46908" pbc="T T T"
Zr       3.02034000      10.16634000       9.79443000       0.74728000      -0.01799800      -0.00370500
Zr       8.77079000       7.69916000       9.39638000       0.47592900       1.09697600       0.08522200
Zr      14.92588000      10.10441000       9.79379000      -0.09901300      -0.03562100      -0.03124900
Zr      -0.01467000      10.22740000       9.77832000      -0.84571400      -0.03022500      -0.00411700
Zr       6.06441000       9.92985000       9.75163000      -0.41942800      -0.07461500      -0.08345600
Zr      11.83371000      10.06918000       9.78373000      -0.47183600       0.86065800      -0.09351400
O        1.54439000      11.11990000       8.87620000      -0.08903800       0.11973900      -0.09946600
O       13.34421000      10.85275000       8.79528000      -0.04303800       0.03446200      -0.19959800
O        1.48694000       9.28881000      10.70756000      -0.08431500      -0.10552100       0.12359700
O        7.38374000       8.57163000      10.40613000       0.24029400      -0.11092700      -0.19193200
O       13.35136000       9.18935000      10.71307000      -0.26073600       0.42413400       0.16314700
O        4.65198000      10.98686000      10.67377000       0.01764500      -0.21707800      -0.08666200
O        9.98368000      12.75374000      10.04522000       1.00262200      -1.95982600       0.00794600
O       16.43522000      11.09696000      10.69170000      -0.01438500      -0.10908800      -0.12832800
O        4.52500000       9.16615000       8.83854000      -0.01387800       0.11937700       0.07172500
O       10.44688000       8.67500000       9.18447000      -0.21150000       0.06465200       0.36222700
O       16.48980000       9.26695000       8.86284000       0.06911000      -0.05909800       0.10816300
