17
Lattice="18.027634 0.0 0.0 0.0 20.0 0.0 0.0 0.0 20.0" Properties=species:S:1:pos:R:3:forces:R:3 energy=-140.48660629 stress="-24.13651 3.02073 0.21689 3.02073 -10.5514 -0.34925 0.21689 -0.34925 -0.51432" pbc="T T T"
Zr       3.03129000      10.16408000       9.79184000      -0.71473800       0.02146100      -0.00164200
Zr       8.81483000       7.65294000       9.37533000       0.30385100       1.36180800       0.22736300
Zr      14.89267000      10.10064000       9.78460000      -0.32712200      -0.03135000      -0.03769200
Zr      -0.05317000      10.22277000       9.77788000       0.27134200      -0.04296300      -0.00430800
Zr       6.04898000       9.91324000       9.72895000       0.22149200      -0.22288300       0.01644100
Zr      11.77327000      10.19059000       9.76147000      -0.42748100       0.93618600      -0.06993600
O        1.53661000      11.12120000       8.87498000       0.00441800      -0.09682900       0.09856200
O       13.33771000      10.86359000       8.76106000      -0.08521200       0.10563700      -0.19362000
O        1.48089000       9.28652000      10.71002000       0.02183000       0.08452400      -0.07908800
O        7.40377000       8.55055000      10.34734000       0.25951500      -0.11864100      -0.35777900
O       13.30188000       9.26192000      10.71990000      -0.40254600       0.64026500       0.09334100
O        4.66270000      10.96532000      10.66475000       0.10927800      -0.03661400       0.06997400
O       10.07328000      12.67086000       9.97196000       1.43237300      -2.53532600       0.02813000
O       16.41804000      11.09032000      10.67991000      -0.24226400       0.01066800      -0.02951200
O        4.51703000       9.16596000       8.82851000      -0.05693300      -0.09763300      -0.14070400
O       10.44404000       8.69352000       9.20212000      -0.19087400       0.17356000       0.34546600
O       16.48505000       9.25373000       8.87081000      -0.17693100      -0.15186900       0.03500400
