17
Lattice="18.027634 0.0 0.0 0.0 20.0 0.0 0.0 0.0 20.0" Properties=species:S:1:pos:R:3:forces:R:3 energy=-140.53819235 stress="-24.70781 2.85138 0.16586 2.85138 -10.65793 -0.89584 0.16586 -0.89584 -0.52662" pbc="T T T"
Zr       3.01569000      10.16468000       9.79182000       0.22653700      -0.00731700      -0.00535000
Zr       8.81601000       7.65071000       9.37481000       0.44728900       1.39923900       0.18239700
Zr      14.89058000      10.09805000       9.78397000      -0.33061100       0.00009900      -0.05064800
Zr      -0.04570000      10.22222000       9.77772000      -0.34480600      -0.03964300      -0.00482200
Zr       6.05661000       9.91054000       9.72853000      -0.22448900      -0.13733700      -0.05006100
Zr      11.77028000      10.20023000       9.76188000      -0.47300500       0.96407400      -0.09251700
O        1.53760000      11.11931000       8.87735000      -0.09936300       0.02557200      -0.02151700
O       13.33698000      10.86295000       8.75721000      -0.06329800       0.10497100      -0.18560100
O        1.48209000       9.28881000      10.70787000      -0.07903200      -0.03230500       0.04152300
O        7.40728000       8.55048000      10.34110000       0.25595600      -0.15562700      -0.27924600
O       13.29595000       9.26899000      10.72049000      -0.37811700       0.62498300       0.12488800
O        4.66451000      10.96556000      10.66642000       0.04700900      -0.16236200      -0.03768000
O       10.07682000      12.66284000       9.96680000       1.46234800      -2.57570600       0.03172300
O       16.41346000      11.08989000      10.67958000      -0.09654500      -0.03948000      -0.08240600
O        4.51564000       9.16418000       8.82446000      -0.03860100       0.02457100       0.00619700
O       10.44797000       8.69742000       9.20617000      -0.27836000       0.11481900       0.34363900
O       16.48266000       9.25108000       8.87093000      -0.03291000      -0.10854900       0.07948100
