17
Lattice="18.027634 0.0 0.0 0.0 20.0 0.0 0.0 0.0 20.0" Properties=species:S:1:pos:R:3:forces:R:3 energy=-140.25107236 stress="-23.17102 2.22901 0.08778 2.22901 -9.60972 -0.83667 0.08778 -0.83667 -0.51345" pbc="T T T"
Zr       3.01957000      10.16569000       9.79319000       0.36224000      -0.00813500      -0.00944300
Zr       8.79353000       7.67472000       9.38520000       0.50377200       1.24164900       0.11466900
Zr      14.91248000      10.09979000       9.78937000      -0.50990900      -0.01133000      -0.06374600
Zr      -0.03712000      10.22467000       9.77797000      -0.17773400      -0.02864300      -0.00526000
Zr       6.06161000       9.91924000       9.74003000      -0.36574900      -0.08660600      -0.07749900
Zr      11.80035000      10.13795000       9.77328000      -0.41061900       0.89570000      -0.08125800
O        1.54158000      11.12039000       8.87647000      -0.15435600       0.03551900      -0.02241500
O       13.33984000      10.85744000       8.77364000       0.00787000       0.04207400      -0.15002700
O        1.48510000       9.28865000      10.70820000      -0.14167100      -0.03298700       0.04527800
O        7.39781000       8.56124000      10.37168000       0.23203200      -0.13255600      -0.21043200
O       13.32135000       9.22995000      10.71710000      -0.29182000       0.55240300       0.11998600
O        4.65823000      10.97566000      10.67027000       0.06602500      -0.18931600      -0.05798100
O       10.02914000      12.70628000      10.00453000       1.22496500      -2.25331000       0.02316600
O       16.42390000      11.09207000      10.68464000      -0.08547800      -0.02538000      -0.05560700
O        4.51980000       9.16546000       8.83089000       0.00956500       0.06813600       0.04282200
O       10.44963000       8.68777000       9.19788000      -0.26571400       0.07120000       0.34342700
O       16.48637000       9.25924000       8.86792000      -0.00341900      -0.13841800       0.04432000
