17
Lattice="18.027634 0.0 0.0 0.0 20.0 0.0 0.0 0.0 20.0" Properties=species:S:1:pos:R:3:forces:R:3 energy=-140.67458187 stress="-25.23309 3.26625 0.2599 3.26625 -11.15373 -0.70523 0.2599 -0.70523 -0.53254" pbc="T T T"
Zr       3.02084000      10.16410000       9.79117000      -0.26496700       0.00512200       0.00031500
Zr       8.82811000       7.64055000       9.36925000       0.34379800       1.46661400       0.24360800
Zr      14.87958000      10.09748000       9.78133000      -0.19469900      -0.01022800      -0.03191300
Zr      -0.05250000      10.22133000       9.77758000      -0.21485900      -0.04919000      -0.00386400
Zr       6.05066000       9.90750000       9.72298000       0.05934900      -0.20533800      -0.00089000
Zr      11.75696000      10.22804000       9.75673000      -0.50835700       1.00180800      -0.10223100
O        1.53478000      11.11986000       8.87694000      -0.00548500      -0.03188600       0.03005100
O       13.33646000      10.86487000       8.75018000      -0.12099100       0.14361200      -0.20543000
O        1.47963000       9.28811000      10.70864000       0.01614500       0.01814400      -0.01402500
O        7.41145000       8.54583000      10.32871000       0.26794000      -0.15112500      -0.35621800
O       13.28529000       9.28545000      10.72230000      -0.41858500       0.65926200       0.11978200
O        4.66706000      10.96017000      10.66407000       0.05860200      -0.09291300       0.01987300
O       10.09682000      12.64397000       9.95028000       1.58031400      -2.72608000       0.03830400
O       16.40969000      11.08863000      10.67729000      -0.16290400      -0.03121200      -0.08193400
O        4.51438000       9.16466000       8.82289000      -0.07839600      -0.05307500      -0.07870500
O       10.44630000       8.70077000       9.21013000      -0.25102500       0.15879500       0.33972000
O       16.48208000       9.24739000       8.87229000      -0.10588000      -0.10231000       0.08355600
