17
Lattice="18.027634 0.0 0.0 0.0 20.0 0.0 0.0 0.0 20.0" Properties=species:S:1:pos:R:3:forces:R:3 energy=-141.39384661 stress="-28.47103 4.328 0.42807 4.328 -13.5445 -0.75944 0.42807 -0.75944 -0.55185" pbc="T T T"
Zr       3.00780000      10.16164000       9.78889000      -0.33948600       0.00498300       0.00077500
Zr       8.86694000       7.58896000       9.35018000       0.45925400       1.90082000       0.31952900
Zr      14.84119000      10.09632000       9.77209000      -0.34913700       0.04280700      -0.02489100
Zr      -0.07574000      10.21627000       9.77730000      -0.27810300      -0.05641700      -0.00388900
Zr       6.04595000       9.88905000       9.70144000       0.02502000      -0.25259100       0.00796400
Zr      11.69516000      10.35230000       9.73111000      -0.72986700       1.38216700      -0.20718300
O        1.52972000      11.11720000       8.87844000       0.00842000      -0.04006500       0.02602600
O       13.32745000      10.88000000       8.71949000      -0.15882800       0.23375800      -0.19304800
O        1.47639000       9.28789000      10.70796000       0.03629400       0.01051500      -0.01153400
O        7.42774000       8.52297000      10.26599000       0.28832100      -0.21114500      -0.42088200
O       13.23832000       9.36135000      10.72715000      -0.36372300       0.75692100       0.14961800
O        4.67830000      10.94219000      10.65669000       0.08909700      -0.11240100       0.01289300
O       10.19886000      12.55956000       9.87403000       2.14286100      -3.54007500       0.07534700
O       16.39113000      11.08499000      10.66709000      -0.14802400      -0.00625600      -0.07798700
O        4.50521000       9.15963000       8.80947000      -0.06900800      -0.08077700      -0.07647900
O       10.43907000       8.71762000       9.22024000      -0.50365200       0.07359900       0.33927100
O       16.47476000       9.23425000       8.87885000      -0.10943900      -0.10584400       0.08447000
