17
Lattice="18.027634 0.0 0.0 0.0 20.0 0.0 0.0 0.0 20.0" Properties=species:S:1:pos:R:3:forces:R:3 energy=-144.3670125 stress="-27.90405 3.70354 0.13157 3.70354 -12.65014 -0.46484 0.13157 -0.46484 -0.41189" pbc="T T T"
Zr       2.96604000      10.14911000       9.78325000      -0.57023100       0.03080800       0.00320700
Zr       8.95940000       7.44308000       9.29362000       0.39906600       2.36961400       0.30248200
Zr      14.70900000      10.12049000       9.74227000      -0.11839100       0.37268500      -0.14941200
Zr      -0.15153000      10.19961000       9.77737000      -0.41051600      -0.05709600       0.01814900
Zr       6.01623000       9.81335000       9.63057000      -0.05370600      -0.36457500       0.06039900
Zr      11.51831000      10.74009000       9.58885000      -0.12238000       0.00471300      -0.24826300
O        1.51797000      11.10953000       8.87877000       0.04229300      -0.10664300       0.05746100
O       13.27401000      10.98677000       8.64282000       0.11698600       0.43389700      -0.22140100
O        1.46737000       9.27976000      10.70947000       0.09278300       0.02284500      -0.03956700
O        7.46458000       8.42937000      10.05413000       0.06692700      -0.14437900      -0.29461300
O       13.18439000       9.55288000      10.75576000      -0.08327900       0.60527400       0.18753800
O        4.72057000      10.88638000      10.63008000       0.09802900      -0.18013700      -0.04396300
O       10.52873000      12.34495000       9.62925000       1.66406400      -2.81835500       0.28009500
O       16.34250000      11.08630000      10.64410000      -0.12920700       0.01297000      -0.10514500
O        4.47054000       9.13207000       8.76013000      -0.19496800      -0.16953200      -0.10997500
O       10.34371000       8.71328000       9.20164000      -0.62957100       0.05753100       0.19125700
O       16.45414000       9.19765000       8.89266000      -0.16790000      -0.06962100       0.11175000
