17
Lattice="18.027634 0.0 0.0 0.0 20.0 0.0 0.0 0.0 20.0" Properties=species:S:1:pos:R:3:forces:R:3 energy=-145.47939467 stress="-17.01956 1.77636 0.202 1.77636 -4.79081 0.27256 0.202 0.27256 -0.30844" pbc="T T T"
Zr       2.86373000      10.11878000       9.77710000      -0.01368700      -0.06663200      -0.02378900
Zr       9.04307000       7.53474000       9.20622000      -0.01739500       1.04904200       0.02135200
Zr      14.68995000      10.26404000       9.68622000      -0.00422900       0.14311900      -0.00512500
Zr      -0.23685000      10.16502000       9.78601000       0.02723300       0.00669800       0.00684400
Zr       5.89191000       9.65605000       9.49822000      -0.22168000      -0.11078800      -0.07413900
Zr      11.63826000      10.64711000       9.35960000       0.13163000      -0.07021400      -0.07211100
O        1.41492000      11.07818000       8.88976000      -0.05672000      -0.02519900      -0.05841600
O       13.43722000      11.04378000       8.41901000       0.12532900      -0.14952700      -0.14715500
O        1.40030000       9.24438000      10.71502000      -0.07776200      -0.03510200       0.04278500
O        7.40267000       8.32392000       9.81020000      -0.01829800       0.06790500       0.06451200
O       13.08436000       9.89933000      10.73132000       0.07943800       0.14026000      -0.08381500
O        4.71329000      10.74418000      10.58635000      -0.08584400      -0.12401900      -0.06256500
O       10.74247000      12.21503000       9.47072000       0.38024400      -0.85950100       0.37306300
O       16.31376000      11.16670000      10.59283000       0.17864900       0.19980100      -0.04581400
O        4.27487000       9.06299000       8.67163000      -0.17099100      -0.12005800      -0.01495100
O       10.34313000       8.85414000       9.14122000      -0.21387000      -0.03632700      -0.05114100
O       16.34882000       9.18492000       8.91654000      -0.04204700      -0.00945800       0.13046600
