17
Lattice="18.027634 0.0 0.0 0.0 20.0 0.0 0.0 0.0 20.0" Properties=species:S:1:pos:R:3:forces:R:3 energy=-145.52088078 stress="-15.43605 1.65739 0.29874 1.65739 -4.63649 0.20317 0.29874 0.20317 -0.38555" pbc="T T T"
Zr       2.84046000      10.11470000       9.77796000      -0.03572700      -0.07165200      -0.03112400
Zr       9.06520000       7.52871000       9.19408000      -0.08596200       0.99477800       0.02152200
Zr      14.69430000      10.29581000       9.67967000       0.05153200       0.13007000       0.00312400
Zr      -0.24680000      10.15809000       9.78881000      -0.00192900       0.02050400       0.01168500
Zr       5.85117000       9.61886000       9.46941000      -0.12172800      -0.11540200      -0.06176800
Zr      11.65929000      10.65495000       9.29051000       0.02794800      -0.00586100      -0.03575600
O        1.38893000      11.08158000       8.89669000       0.00666800      -0.04771500      -0.05192200
O       13.48338000      11.03188000       8.35919000      -0.01797800      -0.10100400      -0.09798600
O        1.38294000       9.22959000      10.71349000      -0.04536500      -0.02138500       0.03853000
O        7.39175000       8.30067000       9.72805000       0.00239000       0.09107200       0.05568400
O       13.06227000       9.97157000      10.70508000       0.07387300       0.06545600      -0.07724300
O        4.69939000      10.70391000      10.58490000      -0.06851800      -0.10743900      -0.06289800
O       10.76361000      12.22078000       9.42189000       0.41317000      -0.85209100       0.30902000
O       16.32681000      11.18799000      10.59130000       0.13075300       0.17626100      -0.07148200
O        4.21869000       9.05772000       8.64732000      -0.13364900      -0.13323600      -0.02785400
O       10.34456000       8.86409000       9.11516000      -0.16055900      -0.00932600      -0.06413900
O       16.32554000       9.18744000       8.92490000      -0.03491700      -0.01303100       0.14260800
