17
Lattice="18.027634 0.0 0.0 0.0 20.0 0.0 0.0 0.0 20.0" Properties=species:S:1:pos:R:3:forces:R:3 energy=-145.5381161 stress="-14.85031 1.43289 0.29237 1.43289 -4.58212 0.19935 0.29237 0.19935 -0.40931" pbc="T T T"
Zr       2.83091000      10.10972000       9.77671000      -0.03355600      -0.08881900      -0.02355500
Zr       9.06721000       7.52798000       9.18203000      -0.05774200       1.05880600       0.02354000
Zr      14.69755000      10.31037000       9.67651000       0.00016300       0.13874200      -0.03586800
Zr      -0.25048000      10.15679000       9.79022000       0.03631600       0.01472800       0.01260400
Zr       5.83439000       9.60321000       9.45403000      -0.11939700      -0.09934300      -0.06998900
Zr      11.66555000      10.66023000       9.26536000       0.04004900      -0.06963700      -0.03457200
O        1.38184000      11.08020000       8.89710000       0.00024900      -0.04704800      -0.05530700
O       13.49624000      11.02473000       8.33490000      -0.01841000      -0.09028300      -0.05831400
O        1.37544000       9.22380000      10.71446000      -0.04414800      -0.00574000       0.03320600
O        7.38549000       8.29703000       9.69915000       0.04513300       0.06000200       0.05315400
O       13.05707000       9.99750000      10.69247000       0.07725700       0.03999100      -0.05456600
O        4.69271000      10.68635000      10.58037000      -0.04609300      -0.09112100      -0.05690400
O       10.77501000      12.22570000       9.40333000       0.38758900      -0.79065700       0.28666400
O       16.33462000      11.20112000      10.58695000       0.08494700       0.17895300      -0.06933500
O        4.19492000       9.05066000       8.63626000      -0.10114600      -0.13249500      -0.02126900
O       10.34428000       8.86826000       9.09952000      -0.20151000      -0.05741500      -0.06345500
O       16.31734000       9.18697000       8.93307000      -0.04970000      -0.01866500       0.13396800
