17
Lattice="18.027634 0.0 0.0 0.0 20.0 0.0 0.0 0.0 20.0" Properties=species:S:1:pos:R:3:forces:R:3 energy=-145.55156671 stress="-14.30176 1.42598 0.28547 1.42598 -4.62577 0.15029 0.28547 0.15029 -0.39146" pbc="T T T"
Zr       2.82430000      10.10429000       9.77539000      -0.05722900      -0.08743100      -0.02046800
Zr       9.06774000       7.52985000       9.17037000      -0.08364700       1.02658500       0.02268500
Zr      14.69817000      10.32237000       9.67275000       0.08923000       0.12926000      -0.03334300
Zr      -0.25176000      10.15602000       9.79139000      -0.02692000       0.02180900       0.01625600
Zr       5.82044000       9.59166000       9.44067000      -0.04748100      -0.10199800      -0.06595500
Zr      11.67065000      10.66279000       9.24700000      -0.02214200      -0.01681200      -0.02525100
O        1.37675000      11.07842000       8.89644000       0.02172800      -0.05771100      -0.05317200
O       13.50491000      11.01868000       8.31712000      -0.05652400      -0.06747300      -0.05835500
O        1.36910000       9.21972000      10.71572000      -0.02404700       0.00226700       0.03097000
O        7.38112000       8.29514000       9.67850000       0.05177600       0.05646300       0.04881500
O       13.05447000      10.01602000      10.68262000       0.04530400       0.02426200      -0.02844200
O        4.68793000      10.67279000      10.57562000      -0.04390100      -0.07481200      -0.05285800
O       10.78403000      12.23178000       9.38906000       0.42015200      -0.84360500       0.26553400
O       16.34034000      11.21303000      10.58259000       0.06080000       0.15862100      -0.08963500
O        4.17729000       9.04374000       8.62773000      -0.10626000      -0.14181100      -0.03093500
O       10.34242000       8.87021000       9.08585000      -0.16532000      -0.02005200      -0.05917700
O       16.31099000       9.18594000       8.94058000      -0.05551800      -0.00756300       0.13333100
