17
Lattice="18.027634 0.0 0.0 0.0 20.0 0.0 0.0 0.0 20.0" Properties=species:S:1:pos:R:3:forces:R:3 energy=-145.6414815 stress="-13.16379 1.10246 0.08048 1.10246 -4.47503 0.13009 0.08048 0.13009 -0.38853" pbc="T T T"
Zr       2.81012000      10.06067000       9.76374000      -0.03130900      -0.06605000      -0.02185800
Zr       9.02902000       7.56350000       9.08406000      -0.01131000       0.96322900       0.00578800
Zr      14.70359000      10.35833000       9.65138000      -0.02710500       0.08570500      -0.02042200
Zr      -0.25589000      10.16728000       9.79741000      -0.00461800       0.01137500       0.00805300
Zr       5.79741000       9.57326000       9.37734000      -0.05936100      -0.08193400      -0.04914600
Zr      11.67095000      10.66365000       9.23290000       0.03234000      -0.05660800      -0.04835100
O        1.38323000      11.04830000       8.87633000      -0.02597400      -0.08157700      -0.05670700
O       13.48702000      10.99521000       8.28033000       0.01971600      -0.03837400      -0.05162800
O        1.34824000       9.21892000      10.73296000      -0.04052500       0.01759600       0.04126600
O        7.36687000       8.32152000       9.67603000       0.03078700       0.00703400       0.06043200
O       13.07195000      10.02894000      10.66548000       0.02547100       0.07988000      -0.01927600
O        4.67855000      10.64106000      10.53430000      -0.00825200      -0.04172000      -0.09169300
O       10.82616000      12.25441000       9.36818000       0.34525300      -0.83964300       0.26725200
O       16.35177000      11.27617000      10.53612000       0.02166400       0.12278300      -0.07569000
O        4.14138000       8.98975000       8.60453000      -0.04742800      -0.11666800       0.00671800
O       10.32678000       8.88118000       9.02210000      -0.17190400       0.02741700      -0.01279900
O       16.29820000       9.17576000       8.98718000      -0.04744600       0.00755500       0.05806000
