17
Lattice="18.027634 0.0 0.0 0.0 20.0 0.0 0.0 0.0 20.0" Properties=species:S:1:pos:R:3:forces:R:3 energy=-145.66283658 stress="-12.8826 1.13799 0.09288 1.13799 -4.398 0.10795 0.09288 0.10795 -0.36691" pbc="T T T"
Zr       2.80672000      10.05140000       9.76111000      -0.05420700      -0.06127500      -0.02178000
Zr       9.02367000       7.57284000       9.06451000      -0.05261800       0.92575500       0.01064000
Zr      14.70282000      10.36554000       9.64686000       0.03491400       0.07689500      -0.01202300
Zr      -0.25801000      10.16876000       9.79851000      -0.02470700       0.01122700       0.00607800
Zr       5.79218000       9.56838000       9.36306000      -0.01938500      -0.09073400      -0.04820200
Zr      11.67334000      10.66256000       9.22565000       0.00165100      -0.01528200      -0.04230500
O        1.38168000      11.03952000       8.87116000      -0.00601000      -0.08373400      -0.05572800
O       13.48849000      10.99117000       8.27055000       0.00075100      -0.03122100      -0.06138500
O        1.34281000       9.21934000      10.73737000      -0.02129000       0.02235100       0.03782800
O        7.36310000       8.32354000       9.67344000       0.03893400       0.00137800       0.05722400
O       13.07310000      10.03701000      10.66171000       0.00151500       0.07264300      -0.01896400
O        4.67748000      10.63524000      10.52248000      -0.01854600      -0.02335300      -0.08134100
O       10.83261000      12.25561000       9.36333000       0.34914800      -0.85306700       0.25715100
O       16.35230000      11.28869000      10.52587000       0.01778900       0.11021000      -0.07862900
O        4.13401000       8.97807000       8.60041000      -0.05841400      -0.12600400       0.00175400
O       10.32310000       8.88700000       9.00950000      -0.14463800       0.05138400      -0.00892400
O       16.29468000       9.17464000       8.99375000      -0.04488900       0.01282800       0.05860400
