17
Lattice="18.027634 0.0 0.0 0.0 20.0 0.0 0.0 0.0 20.0" Properties=species:S:1:pos:R:3:forces:R:3 energy=-145.6935803 stress="-12.68341 1.08954 0.10803 1.08954 -4.35029 0.06496 0.10803 0.06496 -0.39342" pbc="T T T"
Zr       2.80054000      10.03574000       9.75636000      -0.01778800      -0.06552000      -0.02630100
Zr       9.01232000       7.58730000       9.03096000      -0.03640900       0.93105100       0.00897300
Zr      14.70335000      10.37640000       9.63934000       0.00156400       0.07456400      -0.01831100
Zr      -0.26149000      10.17102000       9.79990000      -0.01409800       0.01421100       0.00444400
Zr       5.78535000       9.55998000       9.33921000      -0.04279800      -0.09557300      -0.04482800
Zr      11.67554000      10.66353000       9.21414000      -0.02078300       0.01496800      -0.03747800
O        1.38090000      11.02319000       8.86104000      -0.01391800      -0.07603600      -0.06125800
O       13.48959000      10.98427000       8.25430000       0.00478900      -0.02898200      -0.04810900
O        1.33498000       9.22106000      10.74530000      -0.02368800       0.02531600       0.03783300
O        7.35710000       8.32595000       9.67016000       0.03890300      -0.00703800       0.05637200
O       13.07365000      10.05011000      10.65484000       0.00370600       0.07300900      -0.02299100
O        4.67524000      10.62810000      10.50123000      -0.01323500      -0.01411700      -0.08745200
O       10.84097000      12.25971000       9.35439000       0.35138000      -0.85694600       0.24007600
O       16.35325000      11.30887000      10.50765000       0.02282100       0.09211400      -0.07151700
O        4.12206000       8.95647000       8.59379000      -0.03868900      -0.11374200       0.01871500
O       10.31736000       8.89733000       8.98862000      -0.16327500       0.02632400      -0.00083000
O       16.28973000       9.17263000       9.00487000      -0.03848200       0.00639700       0.05266200
