17
Lattice="18.027634 0.0 0.0 0.0 20.0 0.0 0.0 0.0 20.0" Properties=species:S:1:pos:R:3:forces:R:3 energy=-145.72497985 stress="-12.57704 0.98201 0.1684 0.98201 -4.28786 0.01159 0.1684 0.01159 -0.44568" pbc="T T T"
Zr       2.79403000      10.01885000       9.74992000      -0.01732300      -0.05555500      -0.03035900
Zr       8.99704000       7.60358000       8.98641000      -0.01094000       0.99424000       0.02581100
Zr      14.70494000      10.39043000       9.63015000      -0.02424400       0.06105800      -0.01702000
Zr      -0.26433000      10.17148000       9.80115000      -0.01779200       0.01013300      -0.00032100
Zr       5.77579000       9.54912000       9.30994000      -0.03558700      -0.09004700      -0.03523600
Zr      11.67795000      10.66692000       9.19560000      -0.00425200      -0.00500400      -0.03372400
O        1.37805000      11.00651000       8.85079000      -0.00603200      -0.07313900      -0.06367600
O       13.49726000      10.98029000       8.23379000      -0.02839300      -0.00892300      -0.03252900
O        1.32786000       9.22063000      10.75202000      -0.01758600       0.02899100       0.03459300
O        7.34553000       8.32384000       9.66225000       0.07080800      -0.02759000       0.04619400
O       13.07190000      10.06962000      10.64346000       0.00447000       0.06515200      -0.02997400
O        4.67207000      10.62007000      10.47557000      -0.00389200      -0.01365200      -0.09684000
O       10.84349000      12.26109000       9.34206000       0.34393000      -0.81833400       0.22387200
O       16.35678000      11.32522000      10.49376000       0.02024600       0.08753000      -0.06798600
O        4.10699000       8.93390000       8.58424000      -0.02485000      -0.12453000       0.02273400
O       10.31010000       8.90967000       8.96644000      -0.21379900      -0.03375700      -0.00236900
O       16.28449000       9.17358000       9.01081000      -0.03476500       0.00342600       0.05683100
