17
Lattice="18.027634 0.0 0.0 0.0 20.0 0.0 0.0 0.0 20.0" Properties=species:S:1:pos:R:3:forces:R:3 energy=-145.65935131 stress="-14.27128 1.18381 0.20271 1.18381 -5.93372 -0.09382 0.20271 -0.09382 -0.57878" pbc="T T T"
Zr       2.79030000       9.99699000       9.74042000      -0.02192200      -0.04434300      -0.03423800
Zr       8.98959000       7.58612000       8.93929000       0.02059300       1.35859200       0.12792900
Zr      14.69976000      10.39719000       9.61650000      -0.05892600       0.06174900      -0.01855500
Zr      -0.26795000      10.17201000       9.80022000      -0.01172500       0.00882600      -0.00498500
Zr       5.77134000       9.53653000       9.27484000      -0.01038700      -0.13403700      -0.00603200
Zr      11.66502000      10.69996000       9.17913000      -0.12388000       0.21405700      -0.04791600
O        1.37814000      10.98164000       8.83355000      -0.01532300      -0.07763300      -0.06550100
O       13.48944000      10.97800000       8.21573000      -0.08324000       0.00901400      -0.01956500
O        1.32028000       9.22447000      10.76104000      -0.01127700       0.03613100       0.02369300
O        7.34105000       8.31370000       9.64058000       0.17204400      -0.09974000      -0.04479300
O       13.06293000      10.09185000      10.62891000      -0.04780200       0.11955300      -0.04468700
O        4.67129000      10.61585000      10.43856000       0.00606000      -0.01719500      -0.09903100
O       10.83622000      12.31630000       9.29237000       0.56984800      -1.27990900       0.21448500
O       16.35330000      11.34153000      10.46930000      -0.00863800       0.07583800      -0.06892900
O        4.09785000       8.90240000       8.57644000      -0.01507200      -0.13039400       0.02629900
O       10.29971000       8.90682000       8.93246000      -0.30053800      -0.10401700       0.01420900
O       16.28007000       9.16790000       9.02088000      -0.05981700       0.00350700       0.04761500
