17
Lattice="18.027634 0.0 0.0 0.0 20.0 0.0 0.0 0.0 20.0" Properties=species:S:1:pos:R:3:forces:R:3 energy=-145.62424438 stress="-14.82816 1.25072 0.19897 1.25072 -6.47728 -0.1359 0.19897 -0.1359 -0.59881" pbc="T T T"
Zr       2.78985000       9.99331000       9.73879000      -0.00397100      -0.04386600      -0.03818100
Zr       8.99048000       7.57601000       8.93264000       0.03518700       1.47905800       0.15609500
Zr      14.69755000      10.39706000       9.61382000      -0.04205400       0.06239000      -0.01668500
Zr      -0.26821000      10.17173000       9.79980000      -0.03699600       0.00970600      -0.00587200
Zr       5.77149000       9.53480000       9.26874000      -0.00775600      -0.15042900       0.00071000
Zr      11.66062000      10.71117000       9.17635000      -0.16101300       0.26275100      -0.05909900
O        1.37826000      10.97717000       8.83075000      -0.01893500      -0.07531000      -0.06711000
O       13.48640000      10.97816000       8.21331000      -0.10384400       0.02253300      -0.02407200
O        1.31924000       9.22493000      10.76218000      -0.01232600       0.03443800       0.02258400
O        7.34139000       8.31018000       9.63342000       0.20009300      -0.11624400      -0.07105000
O       13.06004000      10.09635000      10.62579000      -0.07381700       0.13672900      -0.04309400
O        4.67146000      10.61528000      10.43220000       0.00767500      -0.01990000      -0.10047900
O       10.83227000      12.33370000       9.27799000       0.64214800      -1.42140100       0.22368500
O       16.35170000      11.34305000      10.46524000      -0.01360200       0.06628200      -0.07370300
O        4.09732000       8.89785000       8.57472000      -0.01730200      -0.12885400       0.02869000
O       10.29817000       8.90296000       8.92539000      -0.32825200      -0.12538500       0.01903700
O       16.27949000       9.16650000       9.02184000      -0.06523600       0.00750100       0.04854400
