17
Lattice="18.027634 0.0 0.0 0.0 20.0 0.0 0.0 0.0 20.0" Properties=species:S:1:pos:R:3:forces:R:3 energy=-145.59683583 stress="-15.16859 1.44549 0.20543 1.44549 -6.97926 -0.16265 0.20543 -0.16265 -0.61371" pbc="T T T"
Zr       2.78995000       9.99062000       9.73752000      -0.01981700      -0.04035400      -0.03635900
Zr       8.99154000       7.57027000       8.92741000       0.00012000       1.51886600       0.17763600
Zr      14.69572000      10.39718000       9.61187000       0.00702000       0.06175800      -0.00971400
Zr      -0.26859000      10.17162000       9.79950000      -0.03737900       0.00911300      -0.00647700
Zr       5.77117000       9.53363000       9.26415000       0.01503400      -0.16525200       0.00560900
Zr      11.65867000      10.71651000       9.17427000      -0.25124700       0.42456000      -0.05844200
O        1.37827000      10.97412000       8.82877000      -0.01565200      -0.07649500      -0.06451200
O       13.48462000      10.97826000       8.21159000      -0.12687100       0.02682400      -0.02953800
O        1.31835000       9.22534000      10.76301000      -0.00725100       0.03690700       0.01931000
O        7.34148000       8.30805000       9.62879000       0.22159000      -0.12554700      -0.09398100
O       13.05831000      10.09934000      10.62378000      -0.10050800       0.14439500      -0.04373200
O        4.67157000      10.61482000      10.42745000       0.00821500      -0.01704600      -0.09676600
O       10.82844000      12.34681000       9.26876000       0.74509900      -1.63035600       0.22056500
O       16.35088000      11.34425000      10.46226000      -0.02945600       0.06244000      -0.07694200
O        4.09678000       8.89465000       8.57356000      -0.02284200      -0.13477000       0.02279200
O       10.29650000       8.89978000       8.92042000      -0.30772700      -0.10509100       0.02218900
O       16.27920000       9.16561000       9.02257000      -0.07832600       0.01005100       0.04836100
