17
Lattice="18.027634 0.0 0.0 0.0 20.0 0.0 0.0 0.0 20.0" Properties=species:S:1:pos:R:3:forces:R:3 energy=-145.5962253 stress="-15.23086 1.39007 0.20583 1.39007 -6.97349 -0.16091 0.20583 -0.16091 -0.62463" pbc="T T T"
Zr       2.78992000       9.99035000       9.73739000      -0.01964400      -0.04010900      -0.03648700
Zr       8.99098000       7.56960000       8.92663000       0.02268000       1.55274400       0.18133400
Zr      14.69611000      10.39728000       9.61176000      -0.02001200       0.06227000      -0.01201900
Zr      -0.26852000      10.17165000       9.79948000      -0.04092000       0.00977400      -0.00638000
Zr       5.77118000       9.53351000       9.26361000       0.01036700      -0.16443700       0.00612400
Zr      11.65811000      10.71744000       9.17414000      -0.22579300       0.38779000      -0.06024600
O        1.37826000      10.97388000       8.82857000      -0.01511600      -0.07654100      -0.06411900
O       13.48453000      10.97814000       8.21133000      -0.12359200       0.02787700      -0.02557600
O        1.31823000       9.22542000      10.76312000      -0.00652000       0.03706400       0.01885300
O        7.34135000       8.30807000       9.62869000       0.22569700      -0.12994900      -0.09669200
O       13.05823000      10.09946000      10.62366000      -0.09478500       0.14750200      -0.04673800
O        4.67153000      10.61480000      10.42696000       0.00963300      -0.01852900      -0.09807700
O       10.82849000      12.34681000       9.26828000       0.73022000      -1.60037200       0.22197200
O       16.35079000      11.34453000      10.46195000      -0.02388500       0.06173800      -0.07616400
O        4.09659000       8.89422000       8.57344000      -0.02040800      -0.13322300       0.02391400
O       10.29681000       8.90019000       8.92002000      -0.33455200      -0.13316200       0.02142700
O       16.27908000       9.16557000       9.02270000      -0.07337100       0.00956200       0.04887400
