17
Lattice="18.027634 0.0 0.0 0.0 20.0 0.0 0.0 0.0 20.0" Properties=species:S:1:pos:R:3:forces:R:3 energy=-144.44637516 stress="-24.07738 3.31365 0.1551 3.31365 -16.31867 -0.029 0.1551 -0.029 -1.17105" pbc="T T T"
Zr       2.80206000       9.96703000       9.72955000      -0.09273400      -0.01293200      -0.04467000
Zr       9.02717000       7.36529000       8.91499000       0.22437900       3.79403200       0.53199700
Zr      14.67997000      10.37074000       9.59249000      -0.29915100       0.10239600      -0.01940700
Zr      -0.26543000      10.16394000       9.79318000      -0.06727900      -0.00782900      -0.02224200
Zr       5.79053000       9.54064000       9.22737000       0.09229200      -0.42100200       0.09916800
Zr      11.59907000      10.88574000       9.16286000      -0.46498100       1.31576100      -0.28782100
O        1.38646000      10.94890000       8.81778000      -0.02482100      -0.07523500      -0.04960200
O       13.43590000      10.99426000       8.21363000      -0.37921400       0.24488600      -0.01761700
O        1.31381000       9.22091000      10.76426000       0.01206900       0.05557600      -0.02234300
O        7.35378000       8.26574000       9.54066000       0.72663000      -0.54324700      -0.51345900
O       13.02546000      10.12207000      10.59978000      -0.29749300       0.46745500      -0.14892000
O        4.67386000      10.61693000      10.39578000       0.07122400      -0.07311800      -0.08598900
O       10.73110000      12.60810000       9.10760000       1.85006500      -3.77149900       0.46974000
O       16.32572000      11.32706000      10.43856000      -0.10925400       0.04365300      -0.08359700
O        4.11285000       8.88926000       8.55516000       0.01638600      -0.14199600       0.01284600
O       10.30500000       8.80100000       8.86205000      -1.10618700      -0.98717300       0.13767200
O       16.28593000       9.15030000       9.01439000      -0.15193000       0.01027200       0.04424400
