17
Lattice="18.027634 0.0 0.0 0.0 20.0 0.0 0.0 0.0 20.0" Properties=species:S:1:pos:R:3:forces:R:3 energy=-143.76149923 stress="-26.80774 4.52659 0.13475 4.52659 -19.56154 0.11288 0.13475 0.11288 -1.27266" pbc="T T T"
Zr       2.80999000       9.96488000       9.73089000      -0.06440000      -0.00120300      -0.05343800
Zr       9.03885000       7.28988000       8.92859000       0.21451300       4.48402600       0.58160500
Zr      14.67918000      10.35587000       9.59061000      -0.30907300       0.12112800      -0.01151800
Zr      -0.26037000      10.16085000       9.79102000      -0.01399700      -0.01676700      -0.02275900
Zr       5.80511000       9.55183000       9.22902000       0.04572700      -0.48466700       0.11995500
Zr      11.58918000      10.93855000       9.17046000      -0.61790000       1.76034100      -0.37488600
O        1.39282000      10.94783000       8.81991000      -0.05156900      -0.07021500      -0.04650700
O       13.41881000      11.00313000       8.22610000      -0.46195200       0.35304300      -0.03725300
O        1.31608000       9.21739000      10.76203000      -0.00853200       0.05706800      -0.02784800
O        7.35400000       8.25688000       9.52825000       0.89392000      -0.71389900      -0.60174200
O       13.02334000      10.11415000      10.59748000      -0.37475900       0.56966100      -0.17020800
O        4.67379000      10.62223000      10.39963000       0.11192500      -0.11445600      -0.09267000
O       10.68009000      12.70357000       9.07679000       2.31752700      -4.54636400       0.58282500
O       16.31966000      11.31350000      10.43871000      -0.17160400       0.04708900      -0.08179100
O        4.12634000       8.90083000       8.55244000       0.05343500      -0.14615200       0.01449900
O       10.31363000       8.75075000       8.85486000      -1.35771700      -1.30217500       0.18643600
O       16.29450000       9.14618000       9.00672000      -0.20554500       0.00354100       0.03530100
