17
Lattice="18.027634 0.0 0.0 0.0 20.0 0.0 0.0 0.0 20.0" Properties=species:S:1:pos:R:3:forces:R:3 energy=-142.5807717 stress="-30.26012 6.22716 0.1032 6.22716 -23.51064 0.35764 0.1032 0.35764 -1.39209" pbc="T T T"
Zr       2.82377000       9.96481000       9.73465000      -0.01805100       0.00181800      -0.06485300
Zr       9.05183000       7.18472000       8.95543000       0.26065900       5.38118500       0.59381400
Zr      14.68380000      10.33279000       9.59099000      -0.36693300       0.15313200      -0.00703100
Zr      -0.24610000      10.15643000       9.78839000      -0.17433600      -0.02006500      -0.02918200
Zr       5.82626000       9.57425000       9.23800000       0.12127500      -0.63122700       0.14795400
Zr      11.57906000      11.00556000       9.18877000      -0.61605600       2.11855800      -0.47351100
O        1.40279000      10.94931000       8.82534000      -0.05011000      -0.05674400      -0.04662300
O       13.39650000      11.01659000       8.24974000      -0.58820100       0.51216200      -0.05981700
O        1.32032000       9.21199000      10.75799000       0.00608500       0.04868400      -0.02868900
O        7.35118000       8.24813000       9.52746000       1.02583000      -0.89311300      -0.70181800
O       13.02704000      10.09285000      10.59818000      -0.46914900       0.71578200      -0.19600600
O        4.67357000      10.63171000      10.41188000       0.12821200      -0.14487600      -0.08061700
O       10.60098000      12.83667000       9.05075000       2.80795300      -5.27392100       0.71121400
O       16.31182000      11.29236000      10.44308000      -0.17122400       0.01804700      -0.09272500
O        4.15050000       8.92230000       8.55149000       0.04858700      -0.14836500       0.00657400
O       10.33036000       8.67620000       8.85238000      -1.74974900      -1.80554400       0.26253900
O       16.30828000       9.14088000       8.99373000      -0.19479200       0.02448700       0.05877800
