17
Lattice="18.027634 0.0 0.0 0.0 20.0 0.0 0.0 0.0 20.0" Properties=species:S:1:pos:R:3:forces:R:3 energy=-138.59533701 stress="-34.27108 8.47974 0.09586 8.47974 -27.15336 0.86704 0.09586 0.86704 -1.42404" pbc="T T T"
Zr       2.86998000       9.97571000       9.75094000       0.23480200       0.00273800      -0.09180200
Zr       9.09398000       6.95044000       9.05902000       0.51808400       6.35829800       0.36074300
Zr      14.72011000      10.26615000       9.60426000      -0.23143900       0.21603700       0.00195200
Zr      -0.20123000      10.14592000       9.78235000      -0.08101400      -0.04864900      -0.02012400
Zr       5.89874000       9.64738000       9.29578000       0.12473300      -0.78309900       0.13676600
Zr      11.61344000      11.07352000       9.27986000      -0.13334100       1.35480400      -0.35232600
O        1.43678000      10.96500000       8.84782000      -0.16732600      -0.02263300      -0.04782800
O       13.34288000      11.05337000       8.33918000      -0.61566600       0.74404800      -0.14760400
O        1.34086000       9.19657000      10.74445000      -0.07744500       0.03541900      -0.03683900
O        7.31096000       8.26295000       9.60113000       1.01276800      -0.98409400      -0.68923400
O       13.07057000       9.99238000      10.61842000      -0.67478200       0.96832500      -0.27865700
O        4.66917000      10.66791000      10.47198000       0.15673500      -0.26055600      -0.04374200
O       10.33163000      13.21823000       9.05946000       2.84526000      -4.84364300       0.71604200
O       16.30283000      11.22682000      10.46946000      -0.27515800      -0.00670000      -0.07884400
O        4.22962000       8.99766000       8.56381000       0.03238800      -0.15986800       0.01015200
O       10.38082000       8.45694000       8.88108000      -2.35908400      -2.60688600       0.47896300
O       16.35618000       9.13283000       8.95561000      -0.30951500       0.03645800       0.08238400
