17
Lattice="18.027634 0.0 0.0 0.0 20.0 0.0 0.0 0.0 20.0" Properties=species:S:1:pos:R:3:forces:R:3 energy=-136.80697132 stress="-31.19673 7.0474 -0.22729 7.0474 -23.2669 0.85177 -0.22729 0.85177 -1.35465" pbc="T T T"
Zr       2.91417000       9.98899000       9.76308000       0.03064800       0.01493800      -0.08102800
Zr       9.12993000       6.89757000       9.14657000       0.43296000       5.68737300       0.22031000
Zr      14.77196000      10.22709000       9.62077000      -0.01861800       0.24844900      -0.07137300
Zr      -0.16038000      10.14177000       9.78026000       0.13150000      -0.05246200      -0.00014300
Zr       5.94110000       9.70548000       9.35055000       0.28653600      -0.77593800       0.11847700
Zr      11.69404000      10.95422000       9.38135000       0.34325900      -0.15427900       0.05133500
O        1.45440000      10.98246000       8.86365000      -0.14810200      -0.06086000       0.00353900
O       13.32804000      11.06240000       8.40414000      -0.17491900       0.56306600      -0.25112900
O        1.35379000       9.18946000      10.73608000      -0.05869500       0.05658600      -0.07643900
O        7.27475000       8.30502000       9.70385000       0.91299600      -0.80754300      -0.62892400
O       13.10811000       9.91095000      10.63728000      -0.92538200       0.94345700      -0.36777300
O        4.66086000      10.69321000      10.52557000       0.12625200      -0.23530200       0.02146200
O       10.12286000      13.44506000       9.12672000       1.82237000      -3.11958800       0.49023800
O       16.30518000      11.18776000      10.49427000      -0.25911000       0.00842800      -0.05246300
O        4.27994000       9.04868000       8.58511000      -0.05251700      -0.17042700      -0.04860600
O       10.40824000       8.34651000       8.93042000      -2.09224200      -2.18876700       0.59615700
O       16.38440000       9.13412000       8.93413000      -0.35693500       0.04286800       0.07636000
