72
Lattice="30.0 0.0 0.0 0.0 30.0 0.0 0.0 0.0 30.0" Properties=species:S:1:pos:R:3:forces:R:3 energy=-630.75922373 stress="-18.62253 16.28755 -2.64328 16.28755 -23.83495 -4.74076 -2.64328 -4.74076 -5.48983" pbc="T T T"
Zr      15.52896000      17.22135000      16.96652000      -0.30362400       0.07365800       1.60297100
Zr      11.26699000      17.48494000      13.38027000       1.20669500      -0.44916400      -3.42041700
Zr      15.23232000      12.08267000      16.65527000      -0.75622700       0.25615200      -0.59311500
Zr      11.22552000      12.48038000      13.21281000       2.58398400      -2.33834600       4.01317500
Zr      19.31590000      17.19300000      13.24668000      -1.06885300       0.65533100      -0.03230400
Zr      19.16972000      12.31386000      13.21880000      -1.24046400      -1.38139400       1.79323800
Zr      10.83322000      17.57470000      16.85801000       0.42362700       2.32623900      -3.60900200
Zr      10.68875000      12.79282000      16.73941000       2.01399500      -1.13389100      -0.90886600
Zr      18.81863000      17.50185000      16.76863000      -1.81899200       2.27005600      -3.16338700
Zr      14.79841000      17.89221000      13.30066000       1.29205200      -1.06473600       0.59721800
Zr      18.83969000      12.37886000      16.48184000       0.39782800       0.39520500       0.92305400
Zr      14.63093000      12.63102000      12.89907000       1.99209300      -2.03323300      -2.44088900
Zr      12.71292000      14.60451000      18.32239000       1.87935100       0.07661900      -1.79054200
Zr       8.79494000      15.11155000      15.16168000       1.55957900      -5.28200300      -3.25973300
Zr      16.72269000      19.94602000      15.16282000       0.27162500      -1.50303800      -1.14334400
Zr      16.70469000      14.71264000      14.80897000      -0.97614800       0.00012200       0.82495700
Zr      12.48992000      14.98029000      11.53346000      -1.23738200      -0.17257400       2.36391800
Zr      16.52231000       9.65516000      14.61489000      -0.15511300       1.60320600      -0.45858900
Zr      13.48487000      20.41494000      15.33211000       0.35679700      -2.52355800       0.04503000
Zr      17.56174000      14.93688000      18.43238000       1.53539900      -1.12609100      -1.60276100
Zr      13.32237000      15.19588000      15.11921000       1.13554400       0.36986300      -0.68442200
Zr      13.33114000      10.05733000      14.81624000      -1.34902500      -0.55805100       1.62645200
Zr      21.19939000      14.84123000      14.85742000      -0.86750600       5.07927700       4.84429400
Zr      17.29388000      15.30859000      11.68175000       0.72262400      -0.43906400       1.60039800
O       14.13164000      15.85414000      17.15572000      -1.61970200      -0.03742100       0.09066800
O       10.03280000      16.17113000      13.86719000      -2.60648900      -1.04978400       1.62049600
O       13.99834000      10.63156000      16.83006000      -0.80952400      -0.70168100      -0.40027500
O       17.96827000      15.90571000      13.73761000      -1.05145300      -1.29058900      -0.79323400
O       17.79739000      10.61504000      13.47076000       0.71008600      -0.37540000      -0.52150300
O       12.18483000      19.35737000      16.54923000      -0.50981800       0.57227800       0.32990400
O       12.03534000      14.10864000      16.26789000       0.64642000       1.31421900       1.10091400
O       15.99244000      19.36955000      13.18202000       0.91865300       1.36312300       0.96744600
O       19.98772000      13.90661000      16.14307000       1.44914100       1.47867300      -0.91082900
O       15.88707000      14.23658000      12.86846000       1.23069700       1.09428900       0.54032700
O       14.05547000      13.25341000      17.93784000       0.49979400       0.25083700       0.97767600
O        9.95812000      13.37625000      14.52941000      -0.81527900       0.07179800       0.72959800
O       18.06371000      18.50962000      14.75296000       1.19265700       0.98438800      -0.55138800
O       17.89263000      13.23591000      14.49771000       1.64318200      -1.56356500       0.08931000
O       13.70979000      13.63764000      11.13792000       0.10338700       0.60975300      -0.79774800
O       16.22969000      16.43104000      18.85661000      -0.11218100      -0.51431900      -0.26189800
O       12.07051000      16.81264000      15.52348000      -1.25644200       0.53199500      -0.24592700
O       11.91053000      11.51043000      15.25975000      -1.74317100      -0.38500900       0.76428000
O       20.02164000      16.64571000      15.48249000       0.47032500       0.63665300      -0.60244600
O       15.91240000      16.78927000      12.08231000      -0.88665200      -0.07357700      -0.95671900
O       19.90293000      11.32074000      15.16952000      -0.78353800       1.12323500       0.05785700
O       15.80409000      11.58577000      11.87497000      -1.46755100       0.74909200       0.89428300
O       11.32523000      13.41912000      18.63524000      -1.35236800      -1.66988600       0.30847100
O       15.19119000      18.84002000      15.50554000      -2.46339700       0.23546400       1.47020500
O       19.10245000      13.18703000      18.56654000      -2.29645000       0.55214700      -0.90116900
O       15.02373000      13.60583000      15.22245000      -1.63612800       0.02886400       0.20019900
O       10.96857000      13.73408000      11.93880000      -0.77057700       2.57478100      -3.93442400
O       14.95235000       8.40771000      14.95064000      -0.80440400       1.73729600      -1.08165300
O       18.83075000      13.54907000      11.82344000      -1.57592100       0.90021700      -0.49635800
O       11.17312000      16.50511000      18.15697000       2.03564600      -2.55611600       3.85989200
O       15.03619000      21.58536000      15.05618000       0.38056500      -1.31865400       0.92889700
O       19.02260000      16.27105000      18.06101000       0.62462800      -2.14537200       3.36162500
O       14.96700000      16.41262000      14.80952000       0.98428900       0.21539500      -0.05017000
O       10.89495000      16.85017000      11.47458000       1.76638200       0.78290900       1.76077200
O       14.78640000      11.12087000      14.56220000       3.32653200       1.68782400      -1.43067000
O       18.68123000      16.59736000      11.36929000      -0.00695500       0.95022000      -0.07421000
O        9.02518000      16.27449000      16.39759000       0.92129500       5.68432400       3.51748400
O       17.00925000      16.14974000      16.47021000       2.53116400      -0.51315600      -1.09972100
O       12.91476000      16.40798000      13.13122000       0.94558100      -0.01806000      -0.52550700
O       16.85961000      10.78190000      16.14395000       0.63719900       0.73599100       1.57021800
O       12.65040000      11.07212000      12.84706000       0.16421600      -0.19853000       0.57185500
O       20.79778000      16.15145000      13.05993000       2.18453600      -0.08845100       0.93459400
O        9.20288000      13.85004000      16.93500000      -2.65701200       0.83637900      -1.03486500
O       17.29980000      18.92864000      17.16827000      -0.63608300       0.28905500      -0.77548800
O       13.12030000      19.21266000      13.86205000      -1.27623600       0.01063400      -1.32293500
O       17.05003000      13.64805000      16.91014000      -0.82073600      -0.08558600       0.20753300
O       12.93138000      13.92189000      13.56736000      -1.96297500      -0.20902400      -0.29695800
O       20.98239000      13.76924000      13.60074000      -1.04319100      -6.30823900      -4.91574100
