72
Lattice="30.0 0.0 0.0 0.0 30.0 0.0 0.0 0.0 30.0" Properties=species:S:1:pos:R:3:forces:R:3 energy=-648.46028074 stress="-19.11055 0.28035 4.45583 0.28035 -31.44486 6.99955 4.45583 6.99955 -8.89561" pbc="T T T"
Zr      15.57181000      17.14109000      17.14928000       0.32289400      -0.53156200       0.24548800
Zr      11.36958000      17.44888000      13.29155000      -0.04796900      -0.09017200      -0.44729300
Zr      15.13070000      12.19966000      16.64955000       0.25827300      -0.40087900       0.35933000
Zr      11.37350000      12.45714000      13.37637000      -0.58972900       0.32728400       0.94904100
Zr      19.26774000      17.24944000      13.30499000       0.60333800      -0.38059500      -0.25133200
Zr      19.16199000      12.18442000      13.38588000      -0.34250100      -0.05956400      -1.13475200
Zr      10.97671000      17.52487000      16.92900000       0.21893400       0.22140100       0.63276000
Zr      10.71852000      12.77395000      16.67296000      -0.69353600       0.36871100      -0.13316600
Zr      18.73304000      17.50562000      16.61148000       0.07542000       0.37990000      -0.25314000
Zr      14.89429000      17.76137000      13.29032000       0.80497300      -0.60804400      -1.35170100
Zr      18.78833000      12.50290000      16.45685000       0.22612000      -0.27517300       0.84396900
Zr      14.66781000      12.61430000      12.55557000       2.08017200      -1.78052300      -1.09747600
Zr      12.70711000      14.52688000      18.24273000       0.36981400       0.60160200      -0.09158300
Zr       8.98507000      15.06694000      15.27478000       0.39772800       0.09948700       0.39974300
Zr      16.57913000      19.90541000      15.16741000       0.48535400      -0.95613500      -0.01997000
Zr      16.59672000      14.62593000      14.92418000       0.23005800       0.04279400      -0.88332900
Zr      12.30793000      14.89428000      11.66858000      -0.28780700       0.31619600       0.35251500
Zr      16.55160000      10.01467000      14.63255000      -0.23333200      -0.32560600      -0.37204200
Zr      13.44325000      20.00597000      15.28862000      -0.31478500       0.19421700       0.58723500
Zr      17.80429000      14.91772000      18.25780000      -0.10172600       0.03894200       0.03177500
Zr      13.40312000      15.36099000      15.03914000       0.07695900      -0.69517200       0.80379300
Zr      13.40350000      10.11904000      14.88048000       0.47229000      -0.06836900       0.46501800
Zr      21.04113000      14.92392000      14.68672000      -0.02547900       0.22968700      -0.36664200
Zr      17.44012000      15.23603000      11.77004000       0.33223700      -0.39035600       0.56019000
O       13.96948000      15.94944000      17.07868000      -0.10743800       0.08723800      -0.28900600
O        9.89516000      16.21495000      13.85376000      -0.23842300      -0.19075600      -0.04556000
O       13.89323000      10.60722000      16.74745000       0.05072000       0.57025800      -0.41996500
O       17.97006000      15.76575000      13.68966000      -0.03805500      -0.17758700       0.56104500
O       17.96207000      10.47887000      13.37957000      -0.02915100      -0.32039500       0.28332500
O       12.03672000      19.44552000      16.60999000       0.01062900      -0.21436800      -0.52019600
O       12.06009000      14.25315000      16.34107000      -0.08600000       0.04666200      -0.54530400
O       16.06677000      19.42281000      13.32771000      -0.53416900      -0.61993400       0.69637800
O       20.03718000      14.07277000      16.17652000      -0.31029900       0.34053700       0.06982700
O       15.95536000      14.21850000      13.00507000      -0.12148500      -0.16779500      -0.17196100
O       14.23270000      13.24003000      18.07664000       0.00906400       0.23390000       0.50743900
O        9.91168000      13.33653000      14.57702000       0.37110700       0.43163800      -0.21495500
O       18.39415000      18.61829000      14.62868000      -0.08786800       0.78975200       0.43595500
O       17.98329000      13.14950000      14.63107000      -0.35846100       0.07554700      -0.14342400
O       13.74767000      13.77832000      11.07902000      -0.03003200       0.19740300      -0.24435500
O       16.19373000      16.32101000      18.80461000       0.26312000      -0.35660400      -0.38308000
O       11.92925000      16.84611000      15.36888000       0.32365200       0.05357100      -0.35995100
O       11.55757000      11.43443000      15.40618000      -0.13903500      -0.63248300      -0.51429300
O       20.07238000      16.75813000      15.41396000      -0.08059100      -0.20242700       0.11555300
O       15.74572000      16.81787000      11.89771000      -0.26000600       0.08924600       0.31096000
O       19.81246000      11.42190000      15.17902000      -0.08514400      -0.09878600       0.50526100
O       15.84262000      11.44190000      11.72063000      -1.72549200       1.43035300       0.82962500
O       11.31974000      13.20266000      18.53596000      -0.06886700      -0.62912400       0.21797800
O       14.88335000      18.74903000      15.74564000      -0.50561900      -0.24316600      -0.17161800
O       18.77560000      13.22568000      18.51298000      -0.53304900       0.39383000      -0.29126300
O       14.73396000      13.70075000      15.28384000      -0.30735200       0.70394100       0.22108100
O       10.86548000      13.59540000      11.78666000       0.02382900      -0.61613300      -0.18238000
O       14.80061000       8.72557000      14.71424000       0.55038300       0.77633300      -0.30398600
O       18.52401000      13.58623000      11.84829000      -0.33396200       0.22707700       0.23371400
O       11.56218000      16.38458000      18.33246000       0.29594700       0.06603000       0.09309700
O       15.15588000      21.27518000      15.27031000      -0.96820200      -0.22842500       0.30217600
O       19.12211000      16.37930000      18.22028000       0.04604800       0.40931800      -0.10313300
O       15.24544000      16.38541000      14.83912000      -0.30187300       0.12180500      -0.29336900
O       11.24440000      16.83768000      11.49556000       0.57357600      -0.41687000      -0.20293700
O       15.03970000      11.32480000      14.48195000      -0.16948400       0.80858200      -0.01762400
O       18.67553000      16.78899000      11.45625000      -0.22278300       0.10278600       0.09928100
O        9.18367000      16.71224000      16.40394000       0.56371700       0.11508600       0.14062300
O       17.23037000      16.12393000      16.37000000       0.53884200       0.12649700       0.41901000
O       13.13114000      16.36197000      13.13553000       0.10696000       0.05881100       0.27495100
O       16.94388000      10.90853000      16.37960000      -0.07166300       0.29355200      -0.18872500
O       12.77929000      11.02782000      13.07577000       0.06624000       0.65115300      -0.26555800
O       21.01752000      16.27204000      13.16119000      -0.27571000      -0.03314100       0.35421000
O        8.98833000      13.79199000      16.85030000      -0.00810100       0.51110000      -0.44190100
O       17.11609000      18.87354000      16.98793000      -0.03845800      -0.52209400      -0.23072300
O       12.90465000      19.09218000      13.57854000       0.03460100      -0.14743000       0.29907200
O       16.85471000      13.61816000      16.79908000       0.11949700       0.34322800       0.34800200
O       12.70066000      13.94841000      13.61060000      -0.42672600      -0.46174800      -0.38436800
O       20.85215000      13.38455000      13.59841000       0.19786600      -0.03403900      -0.21736000
