72
Lattice="30.0 0.0 0.0 0.0 30.0 0.0 0.0 0.0 30.0" Properties=species:S:1:pos:R:3:forces:R:3 energy=-649.52960728 stress="-12.02787 -2.07667 0.84919 -2.07667 -21.28697 7.43456 0.84919 7.43456 -1.20543" pbc="T T T"
Zr      15.59146000      17.10873000      17.13730000       0.29827300      -0.06335700      -0.04405600
Zr      11.39445000      17.45408000      13.29043000      -0.16119000      -0.65562300      -0.66491000
Zr      15.11181000      12.21629000      16.68099000       0.99226500       0.10852700      -0.17644600
Zr      11.34557000      12.46818000      13.40688000      -0.30482300      -0.00649800       0.51865200
Zr      19.28730000      17.26651000      13.32720000       0.27267800      -0.56206800      -0.38757500
Zr      19.13179000      12.14565000      13.36469000      -0.04788100       0.76190400      -0.26931700
Zr      11.04953000      17.53918000      16.96434000      -0.34689100      -0.12103500       0.05190000
Zr      10.68830000      12.77906000      16.64105000      -0.43110500       0.20529500       0.19965200
Zr      18.75937000      17.51087000      16.58885000      -0.05260100       0.36743600       0.14089800
Zr      14.90792000      17.73719000      13.25111000       0.14150800      -0.99642100      -1.01886600
Zr      18.78416000      12.50480000      16.46587000       0.05508100       0.12319900       0.68252800
Zr      14.71188000      12.57532000      12.50655000      -0.33170000       0.00116600      -0.19503700
Zr      12.72467000      14.50075000      18.24103000      -0.42004500       0.75229800      -0.22509700
Zr       9.02015000      15.10812000      15.31302000       0.11221900       0.30402700      -0.32992100
Zr      16.58459000      19.85073000      15.20179000      -0.48750700      -0.13459200      -0.32193300
Zr      16.57642000      14.62097000      14.89707000       0.39782700       0.16748800      -0.24941900
Zr      12.27865000      14.88592000      11.67793000      -0.08778200      -0.14652000       0.53030000
Zr      16.55890000      10.06381000      14.62043000      -0.85840800      -0.54885700       0.21174200
Zr      13.40341000      19.94357000      15.29944000       0.64214400       0.90316500       0.16417900
Zr      17.79891000      14.95219000      18.24237000       0.42795400      -0.07794700      -0.07567500
Zr      13.40710000      15.35117000      15.07876000      -0.15305800      -0.32727200      -0.44578900
Zr      13.41415000      10.16320000      14.87354000       0.19458300      -0.29187400      -0.05565700
Zr      21.01520000      14.90804000      14.65907000       0.03321300       0.29528200       0.07396400
Zr      17.45952000      15.24190000      11.79922000      -0.35602400      -0.14180000       0.35756400
O       13.96272000      15.98358000      17.05370000      -0.31452600      -0.24364200       0.02771200
O        9.88513000      16.22022000      13.82930000      -0.03859200       0.01657800      -0.11022000
O       13.90516000      10.65297000      16.72409000      -0.20257500       0.27027600       0.11945600
O       17.98727000      15.73814000      13.71884000       0.26547800       0.32146900       0.36458300
O       17.98846000      10.45320000      13.39406000       0.16877400      -0.29409000      -0.31351400
O       12.00224000      19.42994000      16.58675000      -0.34728400      -0.23801600       0.14383800
O       12.03515000      14.26020000      16.31104000      -0.01817600      -0.04607100       0.04987900
O       16.03162000      19.37492000      13.37046000      -0.04967300      -0.24902700       0.46285000
O       20.01556000      14.11306000      16.18485000      -0.35276200       0.04288400       0.01212100
O       15.95375000      14.18885000      13.01077000      -0.03558300      -0.09491700      -0.36895600
O       14.24618000      13.25738000      18.11467000       0.21681200       0.07623200       0.56458700
O        9.91793000      13.37411000      14.57130000       0.23743500       0.37122000       0.21238100
O       18.43352000      18.66932000      14.62922000      -0.05236700       0.66817600       0.39112700
O       17.96554000      13.15828000      14.63152000       0.18132000      -0.64713000      -0.39810200
O       13.73968000      13.81941000      11.06701000       0.30283300      -0.08395700      -0.15258500
O       16.21359000      16.27784000      18.79523000       0.07441200      -0.32346000      -0.13824400
O       11.91455000      16.85442000      15.34759000       0.31596000       0.15084500      -0.02345400
O       11.50642000      11.39323000      15.40195000      -0.14800300      -0.51579600      -0.16220100
O       20.07767000      16.74300000      15.41278000      -0.00196000      -0.11422200      -0.18238900
O       15.74084000      16.80311000      11.85539000       0.05777800      -0.10318200       0.18001600
O       19.80701000      11.41522000      15.19150000      -0.23119500       0.05164900       0.29442500
O       15.82042000      11.44090000      11.69020000      -0.14748700      -0.03630000      -0.14345000
O       11.34250000      13.16572000      18.52403000      -0.05185500      -0.44203800      -0.11685900
O       14.84001000      18.71638000      15.76293000      -0.26257900      -0.57807900       0.10589400
O       18.73213000      13.23052000      18.51991000      -0.42922500       0.38586000      -0.36459800
O       14.70211000      13.75103000      15.31314000      -0.17770500       0.15507000       0.48912700
O       10.87224000      13.51556000      11.80288000      -0.24763900      -0.25829500      -0.71991900
O       14.83435000       8.78225000      14.66636000       0.51004500       0.76573200      -0.17670400
O       18.48290000      13.58209000      11.87350000       0.11746000      -0.30666000       0.13998000
O       11.62609000      16.37397000      18.34981000       0.28130500       0.02656300       0.28288900
O       15.12136000      21.22529000      15.31427000      -0.62145400      -0.47676200       0.21783000
O       19.13984000      16.44702000      18.20850000      -0.14074200       0.07677100       0.08506900
O       15.27574000      16.38895000      14.82193000      -0.30160000       0.06984700      -0.16498400
O       11.32598000      16.80072000      11.48210000       0.20917400      -0.03079400      -0.12263400
O       15.04384000      11.38773000      14.48529000       0.10085700       0.72731300      -0.08512200
O       18.65506000      16.79896000      11.48882000       0.10194200       0.30632400       0.09509000
O        9.23441000      16.73993000      16.39414000       0.77818200       0.49928700       0.61608500
O       17.25291000      16.11734000      16.38689000       0.57792800       0.03685500       0.09212700
O       13.15230000      16.34812000      13.14279000      -0.00062900       0.03693000       0.50010900
O       16.94475000      10.92838000      16.38112000      -0.12215900       0.29951500      -0.11558100
O       12.80302000      11.06691000      13.10824000       0.26755300       0.40147300      -0.43547600
O       21.02009000      16.29354000      13.15714000      -0.20402100      -0.05612100       0.25675400
O        8.97075000      13.80945000      16.84428000       0.05283300       0.23557400      -0.11991800
O       17.08522000      18.82451000      16.95029000       0.05418100      -0.45033000       0.22153500
O       12.88464000      19.06899000      13.57354000      -0.03173000      -0.09876800       0.10574200
O       16.83666000      13.64405000      16.79373000       0.15498200       0.18121500       0.36629900
O       12.65898000      13.94137000      13.60121000       0.00737400      -0.00119500       0.09040100
O       20.84330000      13.36472000      13.60617000      -0.03182900      -0.40073000      -0.54467600
