72
Lattice="30.0 0.0 0.0 0.0 30.0 0.0 0.0 0.0 30.0" Properties=species:S:1:pos:R:3:forces:R:3 energy=-651.19278545 stress="-8.64311 -1.85336 -0.14217 -1.85336 -16.03928 4.03258 -0.14217 4.03258 1.23289" pbc="T T T"
Zr      15.62361000      17.02041000      17.11051000       0.18504900       0.12334200      -0.34225500
Zr      11.42372000      17.41600000      13.23604000      -0.08734600       0.02228300      -0.30311900
Zr      15.19550000      12.30891000      16.74633000      -0.24874700      -0.02998800      -0.00662900
Zr      11.27305000      12.43285000      13.46226000      -0.15344700       0.15319000      -0.00000300
Zr      19.32566000      17.29610000      13.34070000       0.18250900      -0.25376700      -0.03791500
Zr      19.10447000      12.13719000      13.34182000       0.05764500       0.23061000      -0.09287600
Zr      11.17344000      17.53706000      17.01924000       0.08965800      -0.08713400      -0.02384500
Zr      10.61639000      12.77032000      16.66641000      -0.54139900       0.04855700      -0.73571400
Zr      18.82288000      17.58043000      16.57562000      -0.23130600       0.16577000       0.24684100
Zr      14.88302000      17.57224000      13.12228000       0.27015500       0.21364500       0.03158000
Zr      18.75860000      12.50720000      16.50329000      -0.44155600       0.08394300       0.47387800
Zr      14.66784000      12.52289000      12.40517000      -0.37686900       0.63118700       0.65944700
Zr      12.70964000      14.51227000      18.20265000       0.02572200       0.03818900       0.02176400
Zr       9.09505000      15.23992000      15.33495000       0.15578000      -0.03313800       0.06655100
Zr      16.51979000      19.74400000      15.23622000      -0.62237100      -0.07821100      -0.14958100
Zr      16.61000000      14.60458000      14.89361000      -0.20527300       0.37983100      -0.44469400
Zr      12.24250000      14.77569000      11.71281000      -0.26748300       0.42972900      -0.12169000
Zr      16.56303000      10.15570000      14.59120000      -0.77768800       0.09447900       0.27625100
Zr      13.37329000      19.89812000      15.32824000       0.20635600      -0.10407000      -0.14832300
Zr      17.87385000      15.02483000      18.21411000       0.33862200      -0.15152000       0.01719500
Zr      13.37419000      15.34032000      15.07848000       0.12249400      -0.24425700      -0.21476300
Zr      13.44515000      10.27256000      14.87748000       0.25041100      -0.10341700      -0.64918500
Zr      20.95884000      14.86439000      14.63970000      -0.08149900       0.28169900      -0.22151700
Zr      17.44169000      15.23906000      11.86456000       0.19984000      -0.18783400       0.07080000
O       13.91966000      15.99255000      17.02271000      -0.20951500      -0.27114500       0.12368200
O        9.85691000      16.24270000      13.75116000      -0.05029100       0.27142600      -0.08035000
O       13.88104000      10.75593000      16.68270000       0.15084100       0.50969200       0.54927800
O       18.04834000      15.74473000      13.79038000      -0.00668300       0.07868700      -0.28683200
O       18.02772000      10.37120000      13.37424000       0.50186200       0.22567100      -0.49870000
O       11.91375000      19.41738000      16.58699000      -0.13101000       0.11246300       0.39731200
O       11.97207000      14.26144000      16.29238000       0.04196400       0.02814800       0.22662000
O       15.96335000      19.24520000      13.44722000      -0.07995500      -0.33754500       0.10590400
O       19.92591000      14.17934000      16.18434000      -0.23419300      -0.08769100      -0.00598500
O       15.95161000      14.15685000      12.97995000      -0.02950100       0.06191400       0.25097100
O       14.30517000      13.30366000      18.23449000      -0.03220200       0.14122100       0.08039300
O        9.95561000      13.51214000      14.60730000       0.35868900      -0.02758700      -0.17960300
O       18.49707000      18.83286000      14.68952000      -0.03521200      -0.05677600       0.18253800
O       17.91960000      13.09086000      14.61034000       0.03650000      -0.49754800      -0.18975800
O       13.76459000      13.87752000      11.03981000       0.19568400      -0.23921500      -0.23746800
O       16.23194000      16.17002000      18.76245000       0.03158000      -0.17619200       0.01159300
O       11.93251000      16.88253000      15.31013000       0.00726000       0.00597100       0.11945600
O       11.37456000      11.27919000      15.36667000      -0.11912000       0.19816200      -0.16699200
O       20.07152000      16.72116000      15.38412000      -0.00095300       0.13696900      -0.06734800
O       15.79252000      16.70477000      11.74716000       0.05964700      -0.24190500      -0.14199400
O       19.75861000      11.43011000      15.27611000       0.25056700      -0.27645500      -0.27936800
O       15.77475000      11.40948000      11.59894000       0.36160900      -0.58474700      -0.43926300
O       11.36205000      13.05696000      18.44901000       0.14166800       0.02771100       0.46534300
O       14.73125000      18.59375000      15.83022000       0.01970300       0.03567700       0.27042000
O       18.64648000      13.24775000      18.51304000       0.22038100       0.03202200       0.05104800
O       14.68369000      13.83162000      15.43720000       0.21843000       0.01660600       0.16073700
O       10.85903000      13.34732000      11.73520000       0.09564400      -0.23789500       0.06861900
O       14.92143000       8.93251000      14.56201000      -0.06619800       0.36590200       0.11617800
O       18.44406000      13.53586000      11.90282000       0.16653600      -0.16698500       0.02198700
O       11.75689000      16.36975000      18.45661000      -0.00046700      -0.07849200       0.28081300
O       14.99979000      21.11754000      15.41924000       0.21037300      -0.14177500      -0.03737000
O       19.16441000      16.57733000      18.23051000       0.11513900       0.11821900       0.14699700
O       15.30552000      16.37881000      14.75556000      -0.04275800      -0.25613200       0.05775500
O       11.47180000      16.73839000      11.42073000      -0.02291000      -0.16083600       0.11492600
O       15.07578000      11.56483000      14.47915000       0.18848800      -0.11424200      -0.01867400
O       18.63168000      16.84580000      11.54874000       0.09322200       0.08111200       0.09848600
O        9.38659000      16.84527000      16.47275000       0.05536700       0.05532400       0.18237200
O       17.36827000      16.10848000      16.36376000       0.05574000       0.22472600      -0.00320300
O       13.17637000      16.30838000      13.19248000      -0.18456900      -0.22269200      -0.34655400
O       16.92341000      11.01226000      16.39097000       0.09438600       0.14409100       0.19926400
O       12.88572000      11.20467000      13.08201000      -0.04300200       0.18210100      -0.12610100
O       21.03639000      16.28807000      13.16239000      -0.29918800      -0.07494100       0.15939800
O        8.93722000      13.89020000      16.82387000       0.15624600      -0.00206900       0.16368400
O       17.03464000      18.69059000      16.96153000      -0.07810800       0.08437900       0.15169100
O       12.85066000      19.02506000      13.57399000      -0.10303700      -0.07427800      -0.12382900
O       16.84601000      13.71554000      16.79614000       0.16320500      -0.03870400       0.21222800
O       12.59836000      13.93509000      13.62383000      -0.20817300      -0.28435900      -0.04158900
O       20.82522000      13.31454000      13.54760000      -0.06294500      -0.11111100      -0.07091000
