72
Lattice="30.0 0.0 0.0 0.0 30.0 0.0 0.0 0.0 30.0" Properties=species:S:1:pos:R:3:forces:R:3 energy=-651.60489808 stress="-9.49849 -2.71103 1.83494 -2.71103 -13.55427 1.34313 1.83494 1.34313 -6.64909" pbc="T T T"
Zr      15.64131000      16.98672000      17.08244000      -0.05622600      -0.28077000       0.24195500
Zr      11.41953000      17.42012000      13.20027000       0.05396100      -0.26918600      -0.02399300
Zr      15.18935000      12.34366000      16.78559000       0.04379900       0.08449200       0.23754200
Zr      11.23884000      12.41788000      13.45680000       0.07346800      -0.02508700      -0.12267600
Zr      19.34516000      17.30176000      13.34625000      -0.16040300       0.20902400       0.13606400
Zr      19.11662000      12.13196000      13.33989000       0.08365300      -0.05985300       0.19107200
Zr      11.22972000      17.51905000      17.04389000       0.08774900      -0.02815000       0.15534700
Zr      10.56623000      12.76655000      16.63876000       0.49206400       0.22026400       0.24648300
Zr      18.82646000      17.62261000      16.59931000      -0.01476500       0.06020200      -0.05316400
Zr      14.89534000      17.52774000      13.08739000      -0.01125800      -0.65555400      -0.46000000
Zr      18.71009000      12.49107000      16.52913000       0.25508300      -0.25843200       0.02423200
Zr      14.66142000      12.52399000      12.40659000      -0.24639300       0.70521800       0.16605200
Zr      12.70757000      14.50731000      18.20329000      -0.24673000      -0.03842800       0.36472400
Zr       9.13544000      15.28068000      15.35319000       0.34673700       0.19642300       0.00354300
Zr      16.45147000      19.70372000      15.24733000       0.40536800      -0.10187100       0.22377600
Zr      16.62637000      14.61807000      14.87289000       0.22631800      -0.13344000       0.20183100
Zr      12.22530000      14.76012000      11.68508000       0.24903000      -0.31439600       0.06254100
Zr      16.56400000      10.21849000      14.57696000       0.37328200       0.09080000       0.09749300
Zr      13.35565000      19.86086000      15.32884000      -0.26082900       0.00050900       0.19394400
Zr      17.93931000      15.03377000      18.21244000      -0.05046900      -0.03304900      -0.14511600
Zr      13.37064000      15.31349000      15.06299000      -0.13006300      -0.31721900      -0.03546100
Zr      13.48046000      10.32058000      14.84137000      -0.28713800       0.39024300       0.25484000
Zr      20.92772000      14.85808000      14.62263000      -0.20078900       0.06671300       0.36650500
Zr      17.46707000      15.21284000      11.87129000       0.16688100       0.18599000      -0.22943400
O       13.89306000      15.95790000      17.02440000       0.09945000       0.16282600      -0.12857900
O        9.84020000      16.28501000      13.71663000      -0.18446400       0.19715700       0.19580100
O       13.87676000      10.83163000      16.70502000      -0.23077700       0.01310700      -0.44539900
O       18.05652000      15.75862000      13.76995000      -0.03343600      -0.22915600       0.04002900
O       18.05906000      10.37532000      13.32808000      -0.23206300       0.00622000       0.04553100
O       11.89551000      19.44639000      16.63381000       0.21206600      -0.11912400       0.01487000
O       11.95460000      14.26344000      16.31257000      -0.03937800       0.03343200      -0.17390500
O       15.93318000      19.16798000      13.45155000       0.09171100       0.10988800       0.12303000
O       19.86975000      14.18364000      16.17512000      -0.24696000       0.04715600      -0.10912800
O       15.94385000      14.16878000      13.00261000       0.07647200      -0.04097800      -0.07955300
O       14.32107000      13.33421000      18.26766000       0.02001600       0.06146600       0.18902300
O       10.00547000      13.55684000      14.60279000      -0.16352400       0.21499000       0.12178000
O       18.49799000      18.86571000      14.73513000      -0.22566800      -0.13408300       0.06168500
O       17.87941000      13.02816000      14.59913000      -0.19188700      -0.20634600      -0.16754300
O       13.77988000      13.86740000      11.01791000      -0.25113800       0.03797700       0.06520900
O       16.23339000      16.12839000      18.74216000       0.28535800      -0.13735100      -0.26277600
O       11.94717000      16.88545000      15.30443000      -0.00715800       0.02337100      -0.08816600
O       11.32201000      11.28075000      15.32656000      -0.00717700       0.04565200      -0.08255600
O       20.05751000      16.74417000      15.37509000      -0.04290500       0.13703500       0.16103400
O       15.81603000      16.64494000      11.70822000      -0.20626400       0.08298000       0.16407000
O       19.76184000      11.42124000      15.29014000      -0.11241800       0.08005700      -0.08700300
O       15.73904000      11.39134000      11.57132000       0.25437400      -0.44136200      -0.20434300
O       11.36565000      13.03310000      18.45117000      -0.16174100      -0.01661200      -0.29329800
O       14.70451000      18.57170000      15.88117000      -0.08611300       0.00111000       0.03172900
O       18.67104000      13.24389000      18.52872000       0.22257900       0.05866700       0.03319800
O       14.72023000      13.85180000      15.48233000      -0.12659600       0.05221900      -0.18681300
O       10.86904000      13.28718000      11.71703000      -0.02902000       0.15007700      -0.23283400
O       14.91434000       8.99143000      14.55349000       0.25678600       0.12954000       0.06991500
O       18.45965000      13.51500000      11.89505000       0.08873600      -0.09294900      -0.03514600
O       11.77505000      16.37229000      18.52546000      -0.06551600      -0.00748000      -0.02096200
O       14.99453000      21.09316000      15.43593000      -0.11528000      -0.23005500      -0.20407900
O       19.18776000      16.62294000      18.26529000       0.04745700       0.08606300      -0.05013200
O       15.30239000      16.34517000      14.73760000      -0.16631200       0.19048900       0.07570400
O       11.49016000      16.70500000      11.40360000      -0.24586000       0.03726200      -0.21638400
O       15.09676000      11.59292000      14.47274000      -0.02758400       0.13191100      -0.14921400
O       18.63696000      16.86179000      11.56741000       0.07743800      -0.07924700      -0.06946900
O        9.41421000      16.86746000      16.51782000       0.17682000      -0.08764100       0.01828300
O       17.40512000      16.13595000      16.33514000       0.02520300       0.12326300       0.15928500
O       13.15632000      16.26806000      13.15483000       0.05295700      -0.00875000      -0.04986400
O       16.92098000      11.05218000      16.42277000      -0.00519800      -0.21650500      -0.15630900
O       12.90269000      11.26617000      13.04661000       0.07448800      -0.32651700       0.22881900
O       21.02022000      16.26286000      13.17186000      -0.02435200       0.03612600      -0.17578800
O        8.94040000      13.92408000      16.83216000      -0.12248600       0.01929900      -0.06478400
O       17.00827000      18.67668000      16.99836000      -0.15416600       0.13276100      -0.05160300
O       12.83636000      19.00914000      13.55967000      -0.02815400       0.01117900      -0.00749200
O       16.87931000      13.73654000      16.80895000       0.09891700       0.16574400       0.04632400
O       12.56810000      13.90301000      13.63022000       0.10456200       0.15275200      -0.14789300
O       20.82237000      13.31309000      13.52388000       0.07588000      -0.05206100      -0.00240400
