72
Lattice="30.0 0.0 0.0 0.0 30.0 0.0 0.0 0.0 30.0" Properties=species:S:1:pos:R:3:forces:R:3 energy=-651.97741792 stress="-11.20768 -0.21668 2.12308 -0.21668 -12.12888 -1.17628 2.12308 -1.17628 -6.60987" pbc="T T T"
Zr      15.63388000      16.93384000      17.07696000      -0.13438100       0.09708900       0.04261000
Zr      11.42761000      17.38898000      13.15796000      -0.03065200       0.27144900       0.18596700
Zr      15.19131000      12.38417000      16.84545000       0.03566400       0.23259300      -0.02507100
Zr      11.20951000      12.40565000      13.43428000       0.18276400       0.00228700      -0.10726400
Zr      19.33687000      17.33231000      13.37114000      -0.05846200      -0.33199600       0.04535600
Zr      19.14025000      12.11952000      13.35333000      -0.15112200      -0.23067100      -0.19930900
Zr      11.29470000      17.50772000      17.07160000       0.18800400      -0.05151800       0.04982300
Zr      10.56729000      12.79588000      16.62319000      -0.22674300      -0.15184000      -0.02502700
Zr      18.81733000      17.67957000      16.62455000       0.00762700      -0.09728200       0.19553200
Zr      14.89501000      17.43237000      13.02400000       0.07356800       0.37047900       0.35160500
Zr      18.69557000      12.44046000      16.56598000       0.05187300      -0.07820500      -0.29919700
Zr      14.68252000      12.56957000      12.39993000       0.03955200      -0.18291200      -0.09931800
Zr      12.67169000      14.50761000      18.25448000       0.05944300       0.09178600      -0.13955100
Zr       9.22398000      15.33926000      15.36816000      -0.02172800       0.01894500       0.16676900
Zr      16.43324000      19.65359000      15.27549000      -0.20413400       0.11697800      -0.13736100
Zr      16.67092000      14.61750000      14.88016000       0.06008800      -0.29415300      -0.17195600
Zr      12.21724000      14.73132000      11.66803000       0.19370600      -0.18184300      -0.41227300
Zr      16.58408000      10.28388000      14.57607000       0.37008400       0.14141200      -0.51294400
Zr      13.32375000      19.82284000      15.34620000       0.17163900      -0.07421200      -0.19707100
Zr      18.00492000      15.03919000      18.18697000       0.31668200       0.12129300      -0.10263000
Zr      13.35054000      15.25996000      15.04317000       0.10965100       0.33986600       0.16636500
Zr      13.48470000      10.40181000      14.83077000       0.07576700      -0.27844200      -0.23992200
Zr      20.86816000      14.86728000      14.64758000      -0.06656200      -0.15485200      -0.36012000
Zr      17.52143000      15.21053000      11.83941000      -0.03017800      -0.43572900       0.10439000
O       13.87435000      15.94505000      17.01377000      -0.16039300       0.05661800       0.15545800
O        9.79071000      16.36235000      13.71691000      -0.07289900       0.28240900      -0.05614400
O       13.83977000      10.92060000      16.67493000      -0.04990500       0.34192900       0.26542000
O       18.06357000      15.73418000      13.75840000       0.30978300       0.07867800       0.06865900
O       18.06736000      10.38248000      13.28472000      -0.15982600      -0.07814500       0.19546000
O       11.90386000      19.44211000      16.69265000       0.02618800      -0.19501900       0.08917300
O       11.94172000      14.27733000      16.31423000       0.08761200       0.17455800       0.14022300
O       15.91604000      19.09638000      13.47942000      -0.09607200      -0.40856300      -0.01629300
O       19.76834000      14.19229000      16.15288000      -0.33795900       0.07634900       0.04834700
O       15.95328000      14.17748000      13.00888000       0.33655400       0.18118200      -0.13801600
O       14.33075000      13.37620000      18.33437000      -0.02794000      -0.03960300      -0.00723200
O       10.03688000      13.62063000      14.60515000       0.12658100      -0.15337200      -0.31720000
O       18.46584000      18.86697000      14.78393000      -0.03346500       0.00111200      -0.18265000
O       17.81032000      12.93270000      14.56934000      -0.25792700       0.08842400       0.37580500
O       13.77220000      13.85358000      10.99689000      -0.21658800       0.16520900      -0.01067300
O       16.28680000      16.05909000      18.69755000       0.03759000      -0.04657500       0.13272500
O       11.95709000      16.88633000      15.29108000      -0.01799300      -0.17925300      -0.16567900
O       11.27737000      11.29446000      15.27803000       0.06474000       0.05643600       0.07335700
O       20.04512000      16.78421000      15.38851000       0.06415300       0.08397000       0.03680800
O       15.82716000      16.57955000      11.66341000       0.16027900      -0.11617300      -0.29348400
O       19.75475000      11.41921000      15.28647000       0.01470800       0.07153100       0.30520800
O       15.69404000      11.36057000      11.55642000       0.00281700       0.05275400       0.05023300
O       11.35175000      13.01253000      18.42890000       0.03090000       0.08786500       0.09866600
O       14.66494000      18.55004000      15.93918000      -0.00360300      -0.17257200       0.09125900
O       18.73497000      13.24720000      18.54343000       0.14995900      -0.13068800      -0.15731600
O       14.73828000      13.86661000      15.49824000       0.01558600      -0.19938500       0.13664400
O       10.87448000      13.25402000      11.66766000      -0.12625400       0.06551600       0.04975200
O       14.95080000       9.07894000      14.56450000       0.00268200      -0.06482800       0.15510900
O       18.48903000      13.48511000      11.88446000      -0.09706500       0.33271600      -0.06098400
O       11.78377000      16.35917000      18.59309000       0.01617300      -0.12889500      -0.02454600
O       14.96896000      21.03399000      15.41572000      -0.14213600       0.04110500      -0.13040700
O       19.21405000      16.67444000      18.28482000      -0.01367900       0.00698700      -0.17378500
O       15.27626000      16.33421000      14.73695000       0.07079200      -0.00731500       0.02353600
O       11.46598000      16.67186000      11.35675000      -0.14172400      -0.07692700      -0.04145900
O       15.11389000      11.64607000      14.44619000      -0.11413100       0.19381500       0.08254300
O       18.65676000      16.86434000      11.57482000       0.12617800       0.12329300       0.00798700
O        9.47737000      16.88434000      16.57375000       0.18124000       0.14955500       0.16492100
O       17.44275000      16.17435000      16.33176000      -0.14338700      -0.09518800      -0.16023200
O       13.14857000      16.22101000      13.11207000       0.07651900       0.01250900       0.07305400
O       16.92385000      11.05949000      16.43991000      -0.05958600       0.06926300       0.36944900
O       12.91815000      11.27823000      13.04933000      -0.36452800       0.10318400       0.02583300
O       20.98997000      16.24843000      13.16114000      -0.27226200       0.21836100       0.14638100
O        8.93596000      13.94970000      16.83026000       0.13253400      -0.08149000      -0.16548600
O       16.96565000      18.67972000      17.03132000       0.06936200      -0.12074700       0.11439400
O       12.80994000      18.99315000      13.54719000      -0.17759300      -0.14287600       0.03801500
O       16.92226000      13.77397000      16.82676000      -0.17802100      -0.28034800      -0.12607800
O       12.56051000      13.88930000      13.60755000      -0.00045900      -0.08786100      -0.06190700
O       20.83409000      13.31228000      13.51560000       0.15031400       0.42996900       0.49575100
