72
Lattice="30.0 0.0 0.0 0.0 30.0 0.0 0.0 0.0 30.0" Properties=species:S:1:pos:R:3:forces:R:3 energy=-652.6781454 stress="-10.54565 0.71411 -2.10188 0.71411 -6.84281 -2.71041 -2.10188 -2.71041 -10.70651" pbc="T T T"
Zr      15.64904000      16.85431000      17.11479000      -0.18633700       0.04390800       0.09452100
Zr      11.39671000      17.36778000      13.12077000      -0.10710400       0.05572500       0.04114500
Zr      15.19102000      12.48656000      16.97434000       0.02600700      -0.13096400      -0.18177500
Zr      11.18174000      12.41314000      13.38412000       0.13109000       0.02484000       0.05736400
Zr      19.26939000      17.35730000      13.40976000       0.19232300       0.16399400      -0.04838100
Zr      19.14700000      12.09340000      13.35910000       0.19531800      -0.07752000      -0.21245300
Zr      11.50302000      17.42462000      17.13582000       0.11961300      -0.03729400       0.04598400
Zr      10.55835000      12.79650000      16.58022000      -0.26783600       0.17786600       0.03990700
Zr      18.78459000      17.75572000      16.66560000       0.13152200      -0.10452900       0.13988100
Zr      14.92534000      17.26591000      12.95066000       0.19519400       0.08858900      -0.02120200
Zr      18.65215000      12.34704000      16.60063000      -0.06720800       0.03205700      -0.02189200
Zr      14.68991000      12.59783000      12.36012000      -0.37076300       0.15072600      -0.01277400
Zr      12.63079000      14.49525000      18.30141000       0.00157200       0.02018000       0.12024400
Zr       9.43749000      15.46264000      15.41352000       0.27380100      -0.01106100       0.04644400
Zr      16.34873000      19.57230000      15.30623000      -0.06753000       0.04608100      -0.12147400
Zr      16.73312000      14.57059000      14.87284000      -0.11347000      -0.18706100       0.12781100
Zr      12.18257000      14.68891000      11.55724000       0.40756900      -0.09994300       0.07266700
Zr      16.63053000      10.49052000      14.54608000       0.16692400      -0.29537600      -0.15908400
Zr      13.28063000      19.71998000      15.33611000      -0.00048100       0.03063600      -0.06000500
Zr      18.19101000      15.02237000      18.06578000      -0.04632800       0.04341900      -0.09394200
Zr      13.34723000      15.25175000      15.02672000       0.04119000      -0.15792400      -0.06232900
Zr      13.53354000      10.48807000      14.82096000      -0.11883600      -0.02683900      -0.21126200
Zr      20.71895000      14.92840000      14.66159000      -0.19845700      -0.03829000      -0.06691700
Zr      17.59529000      15.18135000      11.81638000       0.05937700      -0.17173200      -0.08401600
O       13.77871000      15.98700000      17.05923000      -0.07480100       0.34584500      -0.13918100
O        9.65995000      16.60486000      13.74117000      -0.13231600       0.00038000       0.10703800
O       13.73759000      11.17663000      16.64860000      -0.07749000      -0.14148600       0.01770600
O       18.17707000      15.65074000      13.77524000       0.17513200      -0.03551300       0.01215000
O       18.11254000      10.37400000      13.21764000       0.00751000       0.12129300       0.30902900
O       11.96768000      19.38179000      16.79185000       0.01757500      -0.21972100      -0.05733800
O       11.90595000      14.34657000      16.35300000      -0.06571100       0.09646800      -0.22809700
O       15.88160000      18.89368000      13.53876000      -0.11631500      -0.01350200      -0.19135700
O       19.46315000      14.27482000      16.11275000      -0.12368600       0.09787300       0.10034300
O       16.07160000      14.21030000      12.95514000      -0.25101400      -0.20580500       0.23314000
O       14.34414000      13.43911000      18.45173000      -0.04646400       0.05372400       0.16824500
O       10.10973000      13.71470000      14.52668000       0.13245000      -0.01826500      -0.05621500
O       18.36845000      18.89553000      14.79640000       0.08864900      -0.04898300      -0.00796600
O       17.66465000      12.71108000      14.56878000      -0.10772600       0.11390500      -0.02542800
O       13.77907000      13.83249000      10.92321000      -0.18610800       0.15633100       0.04943900
O       16.40337000      15.93611000      18.65424000       0.12059500       0.03137400       0.03807000
O       11.93980000      16.82222000      15.21443000      -0.33390900      -0.19178700      -0.00931800
O       11.22708000      11.32784000      15.23925000       0.03132400      -0.01657700      -0.06154800
O       20.05542000      16.89705000      15.45262000       0.04084600       0.10328400      -0.16743300
O       15.88003000      16.47405000      11.54089000       0.13361400       0.12588200       0.04758700
O       19.76728000      11.42614000      15.31133000       0.04276200       0.01804800       0.09897500
O       15.64076000      11.32551000      11.56003000       0.31318300      -0.15633400      -0.06210200
O       11.31690000      13.00355000      18.40864000      -0.02150400      -0.11871000       0.05142200
O       14.60977000      18.47463000      16.04583000       0.05200100       0.15378300      -0.29428300
O       18.89264000      13.22311000      18.48486000       0.01805200      -0.12660500      -0.03107900
O       14.76568000      13.89690000      15.54807000       0.01803500       0.10121100       0.19599900
O       10.83695000      13.23293000      11.58605000       0.03741700       0.04383800       0.20862200
O       15.04354000       9.20542000      14.63437000       0.04804800       0.23873800       0.13423500
O       18.55713000      13.46439000      11.87530000       0.07292600      -0.02079200       0.04659900
O       11.80274000      16.30267000      18.73195000       0.01668800      -0.14404200       0.29423000
O       14.88557000      20.95088000      15.31448000      -0.01902000       0.03251700      -0.00540200
O       19.28012000      16.74144000      18.28884000      -0.19438700      -0.19811600      -0.35371000
O       15.27873000      16.28681000      14.74805000       0.05671300      -0.19170100      -0.19385300
O       11.38617000      16.59070000      11.31350000       0.01626000      -0.01147600       0.20892500
O       15.09381000      11.76350000      14.38999000      -0.15681200      -0.00319200      -0.01257200
O       18.69701000      16.87679000      11.58851000      -0.17350500       0.13350700       0.12816400
O        9.64134000      16.94557000      16.72007000       0.29394400      -0.06270900       0.08443500
O       17.44612000      16.20186000      16.27386000       0.11299800       0.00174600      -0.01380800
O       13.15562000      16.17729000      13.05431000      -0.05164700       0.12895700      -0.05593700
O       16.89690000      11.07214000      16.54420000      -0.09516500      -0.03095800      -0.00566400
O       12.87929000      11.29164000      13.03235000       0.07837600      -0.09386500       0.01666900
O       20.90712000      16.27543000      13.19421000       0.09853500       0.18470100       0.06702000
O        8.95275000      13.97853000      16.74543000       0.09654500       0.06807600      -0.25278400
O       16.90818000      18.65234000      17.10114000       0.01003000      -0.10339300       0.02373900
O       12.71251000      18.93938000      13.53893000      -0.08452800       0.14057800       0.02970700
O       16.94220000      13.74114000      16.83227000      -0.05673200       0.01095500      -0.01723600
O       12.59059000      13.86769000      13.54081000       0.01536000       0.05312900      -0.01511300
O       20.84363000      13.33987000      13.62440000      -0.17387300       0.05790100       0.15747000
