72
Lattice="30.0 0.0 0.0 0.0 30.0 0.0 0.0 0.0 30.0" Properties=species:S:1:pos:R:3:forces:R:3 energy=-653.22823143 stress="-10.55803 2.1011 -2.85326 2.1011 -1.36444 -2.86876 -2.85326 -2.86876 -7.46002" pbc="T T T"
Zr      15.66258000      16.82229000      17.15973000       0.03033100       0.06181400      -0.12785500
Zr      11.32040000      17.37396000      13.13048000      -0.05416800       0.05865200      -0.03722700
Zr      15.15457000      12.49402000      17.05285000       0.22549300       0.06620400       0.14883600
Zr      11.18292000      12.41792000      13.37520000      -0.13530600      -0.08040900      -0.03865300
Zr      19.26611000      17.42389000      13.42311000       0.18757400       0.30692000      -0.30429000
Zr      19.19037000      12.07647000      13.35649000       0.04988400      -0.20408500      -0.02187400
Zr      11.71761000      17.32098000      17.23632000      -0.13521600       0.02044800       0.12016000
Zr      10.51472000      12.82173000      16.55330000      -0.25354200       0.33882400      -0.18425000
Zr      18.76912000      17.79615000      16.67432000       0.05307000      -0.25121600       0.20209600
Zr      14.98645000      17.13853000      12.89249000       0.26515500       0.11672900      -0.22988200
Zr      18.60113000      12.28399000      16.61623000      -0.02721400      -0.00161600       0.15049500
Zr      14.63659000      12.58547000      12.31929000       0.63876700      -0.51655200      -0.54855700
Zr      12.59122000      14.45739000      18.35190000       0.04097000      -0.09980500      -0.08005300
Zr       9.72129000      15.58726000      15.42315000      -0.01988200      -0.08302800       0.21971300
Zr      16.28660000      19.51425000      15.28466000      -0.16003100       0.14353300      -0.13285800
Zr      16.76531000      14.51638000      14.89321000      -0.07485900       0.03863400       0.26726100
Zr      12.19172000      14.68189000      11.53942000       0.36521500      -0.03467700      -0.12644200
Zr      16.64238000      10.57753000      14.51436000       0.13097700      -0.16167400      -0.14081500
Zr      13.23236000      19.69125000      15.30221000       0.12582000       0.07845300       0.24306800
Zr      18.27179000      14.97853000      17.97103000      -0.11682500       0.00899300       0.37729400
Zr      13.34263000      15.22868000      14.97153000       0.15670100      -0.10086900       0.16621100
Zr      13.53321000      10.54995000      14.80249000       0.05303400      -0.11545700      -0.06363700
Zr      20.50610000      14.99976000      14.64281000      -0.04453400      -0.01816200      -0.24102900
Zr      17.64702000      15.14408000      11.83346000       0.16938900      -0.22275300      -0.11019500
O       13.66074000      16.13799000      17.05001000       0.11235100      -0.06464300      -0.11887100
O        9.53139000      16.77111000      13.80853000       0.14484500       0.03333100      -0.13464300
O       13.64886000      11.30730000      16.61775000      -0.15473100      -0.26075100       0.06720900
O       18.32771000      15.56510000      13.78180000       0.00720300      -0.14147500       0.27875500
O       18.18103000      10.36545000      13.24551000      -0.08898600      -0.12090300       0.22115000
O       12.02971000      19.26929000      16.83183000       0.19805800       0.11171500      -0.13980800
O       11.84986000      14.41922000      16.35218000       0.06523600      -0.16203800       0.28086700
O       15.83908000      18.79862000      13.52170000      -0.03244600       0.12354800      -0.25639600
O       19.24251000      14.34763000      16.10162000       0.19342900      -0.30417900      -0.02966400
O       16.07691000      14.17157000      12.96691000       0.08880600       0.20965500       0.08276800
O       14.34928000      13.48574000      18.55220000      -0.08890300      -0.09247400      -0.07857000
O       10.20446000      13.77450000      14.44843000       0.06163600       0.05562400       0.09573500
O       18.32207000      18.90811000      14.79629000      -0.04326000       0.02901900       0.06834900
O       17.60590000      12.61414000      14.53420000       0.25374700       0.53122600       0.11382100
O       13.79083000      13.84195000      10.84835000      -0.25049500       0.09942000       0.32415200
O       16.50035000      15.88206000      18.63139000      -0.38901000       0.21366900      -0.03050500
O       11.80037000      16.67984000      15.14677000      -0.12264600      -0.25534900      -0.15954700
O       11.19783000      11.35081000      15.19701000       0.03359500      -0.13726700       0.07548000
O       20.08053000      17.01468000      15.45247000      -0.13895900       0.02972900       0.10433700
O       15.98716000      16.42476000      11.45808000      -0.12277000      -0.06718000       0.15821600
O       19.77634000      11.44782000      15.35125000       0.04767600      -0.07230000      -0.05177700
O       15.68639000      11.30348000      11.58052000      -0.28025700       0.49153900       0.44985400
O       11.28409000      12.97734000      18.39319000      -0.09345800      -0.10305200      -0.01021800
O       14.60783000      18.44784000      16.00129000      -0.08049500      -0.02503200      -0.40049800
O       19.00050000      13.16924000      18.41812000      -0.15426500       0.04719700       0.07619400
O       14.77394000      13.94566000      15.66870000      -0.32514300       0.21429400      -0.04064400
O       10.84133000      13.24432000      11.59438000       0.03026300       0.05715300      -0.18786400
O       15.10565000       9.31833000      14.72153000      -0.56067500      -0.27601500      -0.04989400
O       18.63978000      13.42800000      11.87328000      -0.14058000       0.16003100      -0.08073600
O       11.83354000      16.21768000      18.91331000       0.16558400      -0.09179700       0.10094900
O       14.83037000      20.90948000      15.23577000       0.20321100       0.02208200       0.04770100
O       19.30240000      16.70732000      18.22078000       0.04444100       0.01354300      -0.09369300
O       15.29771000      16.19632000      14.69068000      -0.01938500       0.01065900       0.00751300
O       11.32325000      16.53442000      11.34808000      -0.15284900       0.14878600       0.13708000
O       15.04835000      11.83777000      14.35252000      -0.09580500       0.01405500       0.12955000
O       18.65220000      16.91812000      11.63584000      -0.07434900      -0.05462200       0.04966200
O        9.84438000      16.95403000      16.86619000       0.04214500      -0.17924500       0.14550600
O       17.44352000      16.23116000      16.23410000      -0.21044200      -0.02118500      -0.13527700
O       13.16216000      16.20471000      13.01274000      -0.02185800       0.15507500       0.07222400
O       16.84085000      11.06737000      16.59643000      -0.03239300      -0.01347400      -0.28567100
O       12.87711000      11.27207000      12.99080000       0.12635900      -0.04276600      -0.01315000
O       20.90919000      16.36190000      13.23212000       0.07662100       0.21383600      -0.24216700
O        8.96635000      14.03946000      16.60986000       0.32481900       0.02565000      -0.04718300
O       16.86242000      18.60485000      17.14150000      -0.07747800       0.12549800      -0.12583400
O       12.59301000      18.95472000      13.54360000      -0.30292500       0.14238600       0.08913200
O       16.91871000      13.70163000      16.84811000      -0.03836000      -0.00864200       0.04196400
O       12.65512000      13.86220000      13.49476000       0.26179800      -0.08741200       0.13874500
O       20.79955000      13.36156000      13.74167000       0.14029800      -0.04582000      -0.15182100
