72
Lattice="30.0 0.0 0.0 0.0 30.0 0.0 0.0 0.0 30.0" Properties=species:S:1:pos:R:3:forces:R:3 energy=-653.36465118 stress="-7.62349 -1.37217 -4.18755 -1.37217 0.3253 -1.88552 -4.18755 -1.88552 -6.8861" pbc="T T T"
Zr      15.66387000      16.82465000      17.15552000      -0.08880700       0.14505400      -0.18147600
Zr      11.30640000      17.38098000      13.13606000      -0.08329700      -0.00265300      -0.21763700
Zr      15.15068000      12.49280000      17.07326000      -0.09391900      -0.05192400      -0.12884100
Zr      11.17768000      12.41222000      13.37193000       0.12421800       0.03934800      -0.06363600
Zr      19.27518000      17.44657000      13.41007000       0.20037300       0.28761500      -0.01962000
Zr      19.20011000      12.06846000      13.36236000       0.06365600      -0.12894400       0.02669200
Zr      11.75216000      17.30432000      17.26540000      -0.30989200       0.09786300       0.04874800
Zr      10.49454000      12.84010000      16.53729000       0.21891700      -0.10825600       0.05695100
Zr      18.76570000      17.79515000      16.67897000      -0.02510400      -0.11952100      -0.00601500
Zr      15.00668000      17.12371000      12.87442000      -0.06982800       0.12567100       0.02324400
Zr      18.59414000      12.27146000      16.62036000      -0.04660400       0.16668100       0.15728400
Zr      14.64829000      12.57028000      12.29721000      -0.12801800       0.33502900       0.23057700
Zr      12.58529000      14.44468000      18.35420000      -0.10228400      -0.21586600       0.02172500
Zr       9.77629000      15.60548000      15.42901000      -0.36423100       0.21520300      -0.08938300
Zr      16.27413000      19.51084000      15.26954000       0.06777800       0.04489700      -0.10834100
Zr      16.77168000      14.51196000      14.90550000      -0.23579900       0.20007600       0.23573900
Zr      12.20917000      14.67824000      11.53813000      -0.29691100       0.50600200       0.21053600
Zr      16.63800000      10.58109000      14.50518000      -0.23309900      -0.20031600       0.06493400
Zr      13.23134000      19.69952000      15.30702000      -0.16600200      -0.06373100      -0.15903800
Zr      18.27103000      14.97004000      17.98090000      -0.12977400       0.04715900       0.14205100
Zr      13.34577000      15.22431000      14.96553000       0.07443400      -0.01997200       0.00838600
Zr      13.53003000      10.55662000      14.79957000      -0.12423600      -0.07929300       0.00262400
Zr      20.45964000      15.00873000      14.61986000      -0.02204500       0.24893700      -0.08691100
Zr      17.65857000      15.13061000      11.84034000       0.05166200      -0.08778700      -0.01012800
O       13.64164000      16.16417000      17.03832000       0.30218600      -0.14700100      -0.07292600
O        9.51741000      16.79544000      13.81398000       0.08995200      -0.10271200       0.10898700
O       13.62956000      11.30972000      16.61365000       0.12834200      -0.05282800       0.20595100
O       18.35654000      15.54561000      13.79383000       0.01183200      -0.00324000       0.08921500
O       18.18926000      10.34982000      13.26194000      -0.05213600       0.03435700       0.17513700
O       12.04741000      19.25053000      16.83039000       0.15983600       0.13599800       0.01818200
O       11.84498000      14.42452000      16.37096000       0.09881700      -0.09975400       0.09848800
O       15.83114000      18.79941000      13.50390000       0.00409700       0.09452400      -0.31491500
O       19.22411000      14.33807000      16.09937000       0.16517700      -0.22932100       0.07561900
O       16.07725000      14.17405000      12.97463000       0.18077100       0.17012000      -0.02656000
O       14.34519000      13.48822000      18.56110000       0.03566100      -0.16046800       0.01333100
O       10.22541000      13.78483000      14.43946000       0.06645900      -0.00286600       0.07863600
O       18.31663000      18.90787000      14.80117000      -0.06525400       0.05794700      -0.00542100
O       17.61971000      12.63574000      14.53080000       0.26670000       0.12483600       0.03749400
O       13.78194000      13.84999000      10.84829000       0.30003700      -0.19147900       0.03480300
O       16.49651000      15.88616000      18.62725000      -0.30426000       0.13473100       0.02364300
O       11.76312000      16.63632000      15.12689000       0.13153300      -0.12756900       0.04063400
O       11.19403000      11.34941000      15.19146000      -0.03327000      -0.08636700      -0.01639300
O       20.07881000      17.03554000      15.45299000      -0.10324100      -0.08969400       0.03077800
O       16.00695000      16.41049000      11.44994000      -0.07258800      -0.15035000      -0.05766200
O       19.77482000      11.45100000      15.35915000       0.12919400      -0.16031800      -0.19124600
O       15.69763000      11.30894000      11.59665000       0.36596200      -0.28454300      -0.01913100
O       11.27640000      12.96976000      18.38984000      -0.15559800      -0.07097200      -0.08262800
O       14.60637000      18.44155000      15.96527000      -0.03857600      -0.09960100      -0.28532900
O       19.00932000      13.16011000      18.41167000      -0.20055000       0.07669400       0.17471500
O       14.75863000      13.95662000      15.69634000      -0.11526500       0.05821500       0.03419100
O       10.84958000      13.25105000      11.59197000       0.04129600      -0.02716400      -0.15507000
O       15.08759000       9.31794000      14.73321000      -0.22854300      -0.14842900      -0.15581200
O       18.64815000      13.42704000      11.86549000      -0.02754100      -0.08117400      -0.01231100
O       11.84821000      16.19593000      18.94800000       0.18098300       0.02659200       0.03168100
O       14.83130000      20.90451000      15.22702000       0.23122900       0.22026600       0.07934800
O       19.30967000      16.69687000      18.20555000       0.03397000      -0.12028100       0.09181200
O       15.29743000      16.18275000      14.67707000       0.06596300       0.04198700       0.05941800
O       11.30158000      16.53663000      11.35892000       0.01415700      -0.04600700       0.10271500
O       15.04322000      11.84983000      14.35651000       0.07955600      -0.02911500      -0.02504900
O       18.63787000      16.92415000      11.64859000      -0.05077100      -0.08635200      -0.06076500
O        9.88258000      16.94533000      16.90217000      -0.04314600      -0.18999900       0.13809900
O       17.43072000      16.23780000      16.22402000      -0.08395800      -0.14340000      -0.06111600
O       13.16459000      16.21951000      13.01372000       0.13368700       0.13884800      -0.00735500
O       16.83033000      11.06492000      16.58756000       0.04310200      -0.04001000      -0.30484900
O       12.88156000      11.26605000      12.98067000       0.09139800       0.01889100      -0.07838800
O       20.91858000      16.39056000      13.22489000      -0.04152300       0.16494900      -0.17629100
O        8.98053000      14.05458000      16.58600000      -0.00093200       0.16057400       0.07861700
O       16.85094000      18.60222000      17.14114000      -0.10249200       0.12534500      -0.12503400
O       12.55340000      18.96667000      13.54834000      -0.15639500       0.33613400       0.35146400
O       16.90989000      13.69457000      16.85453000       0.03826800      -0.01794200       0.14881500
O       12.68181000      13.85579000      13.49669000       0.09315800      -0.18826600       0.06737800
O       20.80013000      13.36960000      13.75518000       0.11153100      -0.32505400      -0.31336800
