72
Lattice="30.0 0.0 0.0 0.0 30.0 0.0 0.0 0.0 30.0" Properties=species:S:1:pos:R:3:forces:R:3 energy=-653.83437442 stress="-8.30046 -2.27852 -1.03655 -2.27852 -8.23157 -2.45987 -1.03655 -2.45987 -11.62675" pbc="T T T"
Zr      15.62553000      16.87134000      17.11348000      -0.04286500       0.06185200      -0.16935200
Zr      11.27352000      17.41373000      13.15148000      -0.04546600       0.11609100       0.09243800
Zr      15.13332000      12.46699000      17.06873000      -0.07173500      -0.13467700      -0.08740200
Zr      11.22105000      12.42387000      13.33682000       0.07425600       0.00410900       0.06074400
Zr      19.31824000      17.54144000      13.37440000      -0.17238800      -0.10995800      -0.00640100
Zr      19.23247000      12.02034000      13.39908000      -0.01998200      -0.00625500      -0.06022300
Zr      11.77833000      17.28193000      17.33418000       0.03464800      -0.05643000      -0.19274100
Zr      10.50173000      12.85145000      16.50077000       0.11201300      -0.03606000       0.02236600
Zr      18.73409000      17.75046000      16.67493000      -0.06799900       0.09586300      -0.00012000
Zr      15.06295000      17.10315000      12.83953000       0.20222400       0.00219600      -0.04985200
Zr      18.61196000      12.28628000      16.61448000       0.06728200      -0.16165700      -0.04094100
Zr      14.70116000      12.58371000      12.31448000      -0.14686300       0.16376200       0.17078600
Zr      12.56605000      14.35923000      18.39430000      -0.10202600      -0.07149200       0.00500600
Zr       9.74989000      15.64387000      15.43635000       0.01322100       0.10878300      -0.04774400
Zr      16.27331000      19.51227000      15.17424000      -0.10522300       0.06712900      -0.13469700
Zr      16.76335000      14.52237000      14.96476000      -0.01873900      -0.07842000      -0.11687800
Zr      12.23673000      14.72881000      11.57480000       0.14792500       0.00257800      -0.15751600
Zr      16.56979000      10.54189000      14.47817000      -0.02991200      -0.00146400      -0.12669900
Zr      13.22629000      19.75411000      15.30992000      -0.19869000      -0.01210300       0.00011000
Zr      18.21184000      14.95472000      18.02762000      -0.04056300       0.07675500       0.02268200
Zr      13.35313000      15.24218000      14.95935000       0.16367500      -0.07910600       0.16416200
Zr      13.47774000      10.56788000      14.80324000      -0.10694500      -0.07481000      -0.05500300
Zr      20.36577000      15.02229000      14.53492000       0.33955200      -0.11539200       0.06170700
Zr      17.69213000      15.08527000      11.87311000      -0.00733300      -0.05674800      -0.22577700
O       13.65815000      16.18132000      17.00089000      -0.08799100       0.09132300       0.01659400
O        9.48882000      16.84905000      13.83249000      -0.07210000      -0.03373100       0.14217500
O       13.61783000      11.27195000      16.64600000       0.06870900      -0.05125200       0.05453300
O       18.40574000      15.54077000      13.80600000      -0.24038000       0.05169300       0.03117900
O       18.18335000      10.31252000      13.35147000       0.05515300      -0.05764900      -0.06670300
O       12.12084000      19.22913000      16.86568000       0.07708900      -0.07442200       0.18005600
O       11.89634000      14.39291000      16.42117000       0.14739700      -0.20135200      -0.01002200
O       15.82661000      18.85135000      13.36231000       0.01757700      -0.10513600      -0.16874400
O       19.26267000      14.29466000      16.13128000       0.06489300       0.17145700       0.06418500
O       16.11931000      14.20816000      12.99741000      -0.04736000      -0.16054200       0.07689500
O       14.32597000      13.42779000      18.59146000      -0.00153100      -0.19847300      -0.04657200
O       10.30173000      13.81433000      14.43842000      -0.04963400       0.16294700       0.13429700
O       18.29917000      18.93018000      14.79803000       0.16071400      -0.01991200      -0.12781300
O       17.69573000      12.69721000      14.54619000      -0.09355800      -0.08173900       0.04530400
O       13.80710000      13.84883000      10.88551000       0.12371900       0.01968100       0.04817700
O       16.41003000      15.94117000      18.60444000       0.07390800      -0.05244800       0.08567400
O       11.73522000      16.56234000      15.10890000      -0.14907100       0.22932200       0.17375600
O       11.18431000      11.33017000      15.15229000       0.05091300       0.08156200      -0.02333800
O       20.04523000      17.03666000      15.43813000      -0.03511200      -0.06243300      -0.08276300
O       16.00809000      16.33761000      11.40189000      -0.05035800      -0.03982900       0.07326900
O       19.79964000      11.41863000      15.36186000       0.05200400       0.11500400       0.15929600
O       15.79182000      11.29479000      11.68550000       0.15294500      -0.07574800       0.24133700
O       11.20443000      12.91611000      18.38274000       0.04603700       0.07881700      -0.01873100
O       14.58886000      18.41214000      15.77584000      -0.00011900       0.09476400      -0.14310500
O       18.94162000      13.16415000      18.46848000      -0.15528700      -0.07190600      -0.02611500
O       14.73478000      13.96831000      15.75916000       0.10124100       0.11732800      -0.25283700
O       10.89909000      13.27849000      11.56903000      -0.00138000       0.06783400       0.02755300
O       14.98031000       9.28984000      14.69272000       0.03433000       0.04955900      -0.13264800
O       18.67086000      13.37786000      11.85002000      -0.09812300       0.09892400       0.13533400
O       11.95142000      16.16431000      19.00279000       0.06549600      -0.01208000      -0.09768100
O       14.87721000      20.94110000      15.23553000      -0.01140900      -0.04433900       0.02575500
O       19.31076000      16.64779000      18.19484000      -0.18047000       0.06492500       0.02416600
O       15.31817000      16.17148000      14.66726000       0.05184800      -0.01125800       0.01059300
O       11.25180000      16.53609000      11.38801000       0.09601000       0.02348100       0.08581300
O       15.02598000      11.86388000      14.37634000      -0.10846600       0.03327100       0.14218200
O       18.60530000      16.93106000      11.67807000       0.00366000       0.05974900      -0.00527100
O        9.91873000      16.87787000      17.00999000      -0.07973400      -0.06178300      -0.25152600
O       17.40880000      16.21060000      16.21603000       0.03071400      -0.06833100       0.11909700
O       13.18039000      16.29028000      13.00203000       0.07969400       0.02022100       0.08582900
O       16.82378000      11.04907000      16.49199000       0.08619400       0.07120100       0.11770000
O       12.90642000      11.26354000      12.94624000      -0.03286200       0.08155500       0.00144500
O       20.92607000      16.48809000      13.18313000       0.07355700      -0.22413100       0.13285600
O        9.00314000      14.11247000      16.57173000      -0.11904900      -0.26348300       0.05548800
O       16.80206000      18.63342000      17.08257000       0.02720100      -0.09981300      -0.18693400
O       12.36514000      19.08622000      13.62738000      -0.14304700       0.14166600       0.12691200
O       16.89358000      13.67102000      16.90549000       0.14189900       0.01920400      -0.13660100
O       12.76145000      13.82290000      13.50266000      -0.00194800       0.30452900      -0.00169400
O       20.82256000      13.36182000      13.71361000      -0.10198100       0.11722700       0.03299400
