72
Lattice="30.0 0.0 0.0 0.0 30.0 0.0 0.0 0.0 30.0" Properties=species:S:1:pos:R:3:forces:R:3 energy=-654.07483278 stress="-11.04196 -2.2445 -0.25888 -2.2445 -11.84921 -1.58535 -0.25888 -1.58535 -13.45441" pbc="T T T"
Zr      15.59900000      16.90226000      17.07367000       0.24525400      -0.16794800      -0.07239400
Zr      11.25309000      17.44217000      13.18457000      -0.02551500       0.04453700       0.08235500
Zr      15.13068000      12.43549000      17.04518000       0.02192000      -0.00380100      -0.23762900
Zr      11.26265000      12.44837000      13.32120000      -0.08208000       0.33805400       0.16748000
Zr      19.31677000      17.56195000      13.36948000      -0.03668400      -0.29415000       0.01695900
Zr      19.23779000      11.99135000      13.41718000       0.02978200       0.04658600       0.10133200
Zr      11.79107000      17.25496000      17.33156000      -0.07024700      -0.02516300       0.04506300
Zr      10.51735000      12.85653000      16.47885000      -0.11170400      -0.01938400       0.08948100
Zr      18.71188000      17.72456000      16.66142000       0.02283100       0.18749100      -0.01253400
Zr      15.11698000      17.08591000      12.82541000      -0.07160400      -0.07927600       0.05153900
Zr      18.63736000      12.29362000      16.61099000      -0.12134300      -0.09668300       0.10700300
Zr      14.73020000      12.60707000      12.36440000       0.04685600      -0.14672800      -0.03330100
Zr      12.54976000      14.29567000      18.43164000       0.12169800      -0.00385100      -0.02067200
Zr       9.70100000      15.65981000      15.44035000       0.11075200      -0.08797500      -0.06679700
Zr      16.26915000      19.52111000      15.08231000      -0.17402200       0.03011900      -0.07988400
Zr      16.77350000      14.51053000      14.98120000       0.03921800       0.09543300      -0.11881200
Zr      12.27932000      14.76141000      11.57341000      -0.00311200       0.05134300       0.02401200
Zr      16.52054000      10.51737000      14.43748000       0.15043300       0.23309700      -0.23041800
Zr      13.20259000      19.79810000      15.33016000      -0.10087100      -0.19285800       0.00201200
Zr      18.16031000      14.95148000      18.05517000       0.04297600       0.03226100      -0.07775000
Zr      13.36823000      15.26317000      14.97975000       0.13075400       0.04492100       0.06224000
Zr      13.42627000      10.56725000      14.80622000       0.10047000      -0.10915600       0.02568100
Zr      20.37089000      15.02043000      14.50901000       0.08821700      -0.05731900       0.26312200
Zr      17.70702000      15.06438000      11.86708000      -0.09654100       0.07250500      -0.07062800
O       13.65085000      16.20105000      16.98420000       0.14271400       0.21371700      -0.20828600
O        9.45432000      16.88396000      13.85624000       0.06527800       0.00481100       0.04298600
O       13.61805000      11.21998000      16.66547000       0.02126500      -0.04380400      -0.00074700
O       18.37898000      15.56124000      13.79553000       0.00464900      -0.11252500       0.15224800
O       18.18818000      10.28236000      13.39478000       0.08398600      -0.05704100      -0.07092000
O       12.17798000      19.20489000      16.92556000       0.12704000      -0.03589600       0.06303000
O       11.97166000      14.33006000      16.44145000       0.15401300      -0.07571500       0.00859300
O       15.83644000      18.88105000      13.24479000       0.10345500      -0.12616800       0.01216100
O       19.31940000      14.30776000      16.16325000      -0.12162000      -0.03225900      -0.00985400
O       16.13437000      14.19451000      13.02122000      -0.10022500      -0.14025600      -0.16471100
O       14.30387000      13.34696000      18.60057000       0.02646700      -0.09312900      -0.20497700
O       10.34509000      13.85368000      14.45806000       0.00482200       0.04829600       0.02541700
O       18.31472000      18.94654000      14.76827000       0.00390600      -0.03913200      -0.15947500
O       17.72118000      12.70498000      14.56343000       0.03268800      -0.14997200      -0.10505900
O       13.85028000      13.85104000      10.92060000       0.17276600      -0.00187500      -0.07793700
O       16.36261000      15.97704000      18.58883000      -0.04604800      -0.00867100      -0.01873500
O       11.71508000      16.58395000      15.13773000      -0.08158500      -0.13925700      -0.01350500
O       11.19272000      11.33207000      15.11625000       0.05096300       0.02882400       0.06357000
O       20.01009000      17.01741000      15.41089000      -0.04516700       0.13536700       0.13800600
O       15.99649000      16.28075000      11.36883000       0.11177200      -0.10260100       0.04913900
O       19.83651000      11.40860000      15.38482000       0.04630300       0.21964400      -0.04685100
O       15.86457000      11.28960000      11.80225000      -0.09720600       0.11581300       0.60339000
O       11.16340000      12.88925000      18.38637000       0.04429300       0.08034300       0.03499300
O       14.57371000      18.41789000      15.62692000      -0.10154200       0.02146600      -0.01128500
O       18.85761000      13.15542000      18.50460000       0.06007400      -0.09637900      -0.07215300
O       14.75720000      13.97856000      15.74789000      -0.01268900       0.08188800      -0.03429800
O       10.93509000      13.30647000      11.57122000       0.02684000       0.18466200      -0.09496700
O       14.91842000       9.28645000      14.63166000       0.06419000      -0.05402700      -0.04931200
O       18.67379000      13.34881000      11.86763000      -0.15274600       0.20258700       0.06086500
O       12.03181000      16.15008000      19.00147000      -0.21447900      -0.09031600      -0.10203200
O       14.89463000      20.95557000      15.24908000      -0.15650900      -0.05751500      -0.08408900
O       19.26940000      16.63767000      18.19274000      -0.03968700       0.22926900       0.11815800
O       15.34323000      16.16877000      14.66923000       0.09204800       0.06907200       0.05141800
O       11.24333000      16.54196000      11.41936000       0.10555900       0.12959600       0.17885500
O       14.98638000      11.87346000      14.41795000      -0.10345700       0.00351500       0.24064900
O       18.58660000      16.94297000      11.68780000      -0.03121100      -0.06306400      -0.16077900
O        9.91360000      16.83044000      17.02717000      -0.02997600       0.09130900      -0.05993200
O       17.40883000      16.18018000      16.24318000      -0.12315900       0.02484900      -0.05523000
O       13.20087000      16.33739000      13.00615000       0.11382900       0.18107200       0.21332900
O       16.83769000      11.04837000      16.45006000      -0.11898900      -0.03009700       0.09117300
O       12.91534000      11.27807000      12.93043000      -0.03181200       0.15144700       0.00098600
O       20.93605000      16.49910000      13.18825000      -0.01030500      -0.17160900       0.01479300
O        8.99649000      14.08961000      16.58424000       0.04450900      -0.17862700      -0.15280000
O       16.77553000      18.64232000      17.00367000      -0.02643300      -0.08594100      -0.18267200
O       12.21375000      19.18957000      13.69066000      -0.02794600      -0.04355400       0.15562000
O       16.90102000      13.65709000      16.90550000      -0.03088900      -0.02014200      -0.14403400
O       12.80455000      13.86113000      13.49977000      -0.14173700       0.06628800      -0.07815300
O       20.82166000      13.36999000      13.68047000      -0.11544600      -0.12631500       0.02595100
