72
Lattice="30.0 0.0 0.0 0.0 30.0 0.0 0.0 0.0 30.0" Properties=species:S:1:pos:R:3:forces:R:3 energy=-654.53235173 stress="-7.63518 -1.15176 -0.82786 -1.15176 -11.33254 0.59083 -0.82786 0.59083 -13.46158" pbc="T T T"
Zr      15.61147000      16.91000000      17.01048000      -0.12862100      -0.02000100       0.06974800
Zr      11.22456000      17.48485000      13.24428000       0.12318500       0.13396500       0.31333500
Zr      15.12811000      12.38581000      16.95954000       0.19744300      -0.06312400      -0.29600700
Zr      11.29968000      12.53675000      13.33480000      -0.13109300      -0.13705600      -0.22998700
Zr      19.29995000      17.52275000      13.36244000       0.03503400      -0.05173700       0.11600300
Zr      19.25691000      11.96610000      13.45405000      -0.08840600      -0.04860600      -0.09452500
Zr      11.78985000      17.22257000      17.33719000       0.03919200      -0.02308000       0.22969700
Zr      10.52670000      12.84547000      16.47912000       0.17221000       0.07796400       0.12320400
Zr      18.68701000      17.74221000      16.64691000       0.04083400       0.02306900      -0.04696200
Zr      15.16756000      17.05209000      12.81538000       0.14636200       0.22836500       0.11062600
Zr      18.63705000      12.27413000      16.62535000      -0.55118400       0.18309900       0.26426300
Zr      14.73763000      12.63357000      12.43163000      -0.17542300      -0.15725400       0.10142400
Zr      12.55673000      14.21304000      18.46822000       0.21121000      -0.01814900      -0.06850800
Zr       9.66764000      15.66722000      15.43271000      -0.10665400      -0.10668200       0.23720700
Zr      16.22817000      19.53733000      14.95758000       0.10601000      -0.11119300       0.04994400
Zr      16.79619000      14.50966000      14.96488000       0.06732700      -0.13815300       0.17781300
Zr      12.33708000      14.81323000      11.57204000       0.22071200      -0.03302300      -0.05910800
Zr      16.49258000      10.53602000      14.33434000      -0.22376600      -0.01687500      -0.49360200
Zr      13.15500000      19.81031000      15.35992000       0.26130000       0.09616400       0.09117000
Zr      18.11375000      14.95809000      18.06968000       0.04843300      -0.12901600      -0.22812900
Zr      13.40679000      15.30088000      15.01274000       0.01583300       0.14108500       0.04136100
Zr      13.38780000      10.54182000      14.81371000       0.22731500      -0.01181200       0.03591600
Zr      20.40008000      14.99621000      14.53337000      -0.22881800       0.24667100       0.27051800
Zr      17.70530000      15.05729000      11.84466000       0.08722800       0.09559300       0.14581100
O       13.67274000      16.27269000      16.91654000      -0.16764600       0.16724400      -0.15473600
O        9.42543000      16.92423000      13.89364000      -0.06650400       0.03743900      -0.13347200
O       13.62250000      11.14668000      16.68800000      -0.30352400      -0.38588000      -0.12827700
O       18.35222000      15.56027000      13.81486000       0.27426200      -0.08451600      -0.20736000
O       18.21496000      10.23427000      13.42803000       0.35906100       0.05708800      -0.01309200
O       12.27139000      19.16545000      17.00967000      -0.08474000      -0.07946600       0.07672700
O       12.09158000      14.24036000      16.46633000      -0.11750400      -0.02354400      -0.01384100
O       15.86994000      18.88387000      13.11049000      -0.00639000      -0.18521700       0.04223200
O       19.35498000      14.31553000      16.20033000      -0.15023400      -0.16259100      -0.04715000
O       16.13061000      14.15098000      13.02000000      -0.14598400       0.14393900       0.04556100
O       14.28555000      13.23555000      18.56421000       0.10706800       0.13384500      -0.16278200
O       10.39275000      13.91551000      14.49024000       0.02275000      -0.01535400      -0.05273700
O       18.33063000      18.95492000      14.69771000      -0.27949100      -0.08289200      -0.06471300
O       17.74653000      12.68582000      14.56552000      -0.12979200      -0.09780600      -0.09883700
O       13.93430000      13.85462000      10.94579000      -0.24833700       0.09590800       0.08611800
O       16.30407000      16.00973000      18.57056000       0.16092300      -0.18917400       0.00444100
O       11.67493000      16.57460000      15.16645000       0.04774100      -0.33332300      -0.17652800
O       11.20959000      11.34697000      15.08910000      -0.13231600       0.15077300       0.03731000
O       19.96605000      17.01866000      15.40788000       0.16071100      -0.07736400       0.11930800
O       16.00069000      16.19540000      11.34465000      -0.21483900       0.07632900      -0.01653200
O       19.88745000      11.44852000      15.40622000       0.06636800       0.04434900      -0.14709000
O       15.95516000      11.27442000      12.07134000      -0.08667600      -0.16049800       0.93497500
O       11.12529000      12.87756000      18.39922000      -0.07718900      -0.10583300       0.12111700
O       14.53459000      18.42536000      15.44989000      -0.04365000      -0.10839300      -0.03059100
O       18.77397000      13.12876000      18.52929000       0.16224100       0.19497300      -0.15616600
O       14.78485000      14.01031000      15.72645000      -0.06688100       0.18715100       0.00591300
O       10.98106000      13.38007000      11.55603000       0.11238000       0.21712200       0.10808900
O       14.87009000       9.27578000      14.54705000       0.28293500       0.19512800      -0.04824700
O       18.64370000      13.35725000      11.90023000       0.10398700      -0.21227500      -0.05850900
O       12.07568000      16.11077000      18.97727000      -0.19973000      -0.15140500      -0.11403500
O       14.87535000      20.96048000      15.24335000      -0.25290400      -0.02929200      -0.19494000
O       19.20638000      16.67563000      18.21394000      -0.12310800       0.14450200      -0.03413600
O       15.39694000      16.18062000      14.68245000       0.13057100       0.07873500      -0.18741300
O       11.25936000      16.57836000      11.49686000       0.11067000      -0.01122400      -0.09478600
O       14.92059000      11.89036000      14.51993000      -0.02800300       0.16088100       0.07409500
O       18.56155000      16.94147000      11.66654000       0.09172500      -0.18154000      -0.08332500
O        9.89877000      16.79441000      17.03210000      -0.07912200       0.13284000       0.10869700
O       17.39412000      16.14979000      16.26110000       0.46191900       0.14581900      -0.10901400
O       13.24762000      16.43151000      13.05962000      -0.19426400       0.00372600       0.03341800
O       16.82832000      11.04314000      16.42178000      -0.08937700      -0.01240600      -0.06858100
O       12.91858000      11.33166000      12.91735000       0.06177800       0.14849000       0.18175600
O       20.94532000      16.46794000      13.20222000      -0.14734100      -0.19368300       0.10672000
O        8.98885000      14.02833000      16.56458000       0.03150500       0.09193500      -0.16349700
O       16.74011000      18.63570000      16.87059000      -0.00443900       0.22289200      -0.00191500
O       12.02999000      19.29676000      13.79537000      -0.00932900      -0.29933000      -0.07560500
O       16.90683000      13.64130000      16.87319000       0.04689200       0.12226300      -0.02177400
O       12.82504000      13.92710000      13.48092000       0.10366500       0.10572600      -0.12431400
O       20.79617000      13.36416000      13.65427000       0.18450000      -0.03631000       0.03630600
