72
Lattice="30.0 0.0 0.0 0.0 30.0 0.0 0.0 0.0 30.0" Properties=species:S:1:pos:R:3:forces:R:3 energy=-654.76662044 stress="-6.28575 1.12453 0.20943 1.12453 -10.70972 0.8516 0.20943 0.8516 -11.75513" pbc="T T T"
Zr      15.61191000      16.91385000      16.97644000       0.18956800      -0.08499400       0.13896000
Zr      11.21453000      17.51263000      13.29405000      -0.01693900      -0.06192800       0.14558000
Zr      15.13524000      12.34519000      16.88817000      -0.06800800      -0.01666900      -0.22534900
Zr      11.32000000      12.57896000      13.33258000      -0.48648900       0.27355000      -0.09061300
Zr      19.28805000      17.49174000      13.36274000       0.16028200      -0.00148600      -0.05125900
Zr      19.26642000      11.94599000      13.47036000       0.13588500      -0.03181800       0.06187100
Zr      11.78629000      17.20661000      17.35261000      -0.11015000      -0.16254600       0.10537700
Zr      10.54731000      12.82866000      16.49297000      -0.13043200       0.54231100      -0.23729500
Zr      18.67429000      17.76186000      16.63808000       0.02189000      -0.19520200       0.06211300
Zr      15.20356000      17.04232000      12.81316000      -0.23855600       0.00747100       0.09762200
Zr      18.60367000      12.26903000      16.64927000       0.14739700      -0.31786300      -0.49219700
Zr      14.72435000      12.64350000      12.48121000      -0.19275000       0.25106700      -0.01482600
Zr      12.57835000      14.15795000      18.48733000      -0.20115200      -0.00439600      -0.16292500
Zr       9.64755000      15.67227000      15.44044000      -0.31045400      -0.23686800      -0.03038000
Zr      16.21081000      19.53980000      14.88278000      -0.06692600      -0.05633700       0.15471300
Zr      16.81977000      14.49816000      14.95335000      -0.10028900      -0.01270200       0.22605200
Zr      12.38341000      14.85240000      11.56702000      -0.15407400       0.18043200       0.13379900
Zr      16.46503000      10.54828000      14.24789000       0.56791000      -0.33883300      -0.36703200
Zr      13.13923000      19.82198000      15.39216000       0.03250700      -0.10276400      -0.34969200
Zr      18.09202000      14.95680000      18.06668000       0.06707100       0.23096500      -0.24194600
Zr      13.42383000      15.33914000      15.03393000       0.00286200      -0.08985300      -0.37593700
Zr      13.38063000      10.52147000      14.81877000      -0.12826200       0.08366300       0.18691300
Zr      20.40693000      14.98974000      14.56493000      -0.05862600      -0.34608100      -0.03728800
Zr      17.70763000      15.06317000      11.84073000       0.16880800      -0.30417600      -0.01174100
O       13.68584000      16.32730000      16.85945000      -0.44861000       0.19808400       0.23354900
O        9.40575000      16.95045000      13.90893000      -0.05356300      -0.04052200       0.00573300
O       13.61182000      11.08490000      16.69476000      -0.19363000      -0.39319400      -0.08843500
O       18.35161000      15.55202000      13.82026000       0.30245300       0.02500500      -0.28686600
O       18.24957000      10.20774000      13.44519000       0.22555200       0.01604700       0.09728000
O       12.32660000      19.13572000      17.06269000      -0.09447100       0.01076500       0.05510700
O       12.16178000      14.18664000      16.47857000      -0.22419500      -0.00762100       0.14293600
O       15.89110000      18.87185000      13.03327000       0.10168500       0.13464900       0.13662300
O       19.36528000      14.31043000      16.22045000      -0.27192700      -0.12927300       0.06088300
O       16.12069000      14.13031000      13.01955000      -0.25812400       0.14412900       0.14400500
O       14.27699000      13.17718000      18.53068000       0.40062000       0.05918300      -0.20005500
O       10.41905000      13.95729000      14.50987000       0.22199700      -0.33788300      -0.23871600
O       18.32437000      18.95535000      14.64955000      -0.30981300      -0.12076500      -0.03796100
O       17.75081000      12.67247000      14.56331000      -0.26039100      -0.04627900      -0.03055800
O       13.97617000      13.86261000      10.96048000      -0.04884500      -0.25799600       0.22919800
O       16.27650000      16.01840000      18.56124000       0.17097500      -0.19133700      -0.19078400
O       11.65692000      16.54389000      15.17082000      -0.05119600      -0.17484200       0.08457700
O       11.21266000      11.36695000      15.07621000      -0.11613200       0.05793900       0.00292100
O       19.94866000      17.01642000      15.41462000       0.22443400      -0.04350900       0.09123100
O       15.99490000      16.14572000      11.33079000      -0.31317300       0.19281700      -0.01163300
O       19.92540000      11.47884000      15.41066000      -0.54416200       0.23838800       0.26326900
O       16.01310000      11.25100000      12.28547000      -0.52683100       0.05302800       0.37878900
O       11.09830000      12.86917000      18.41289000       0.10943800      -0.12573000       0.22999000
O       14.50676000      18.41995000      15.34314000       0.00409800       0.12230600      -0.03006000
O       18.73377000      13.12213000      18.53496000       0.17606500       0.20253900      -0.04814600
O       14.79863000      14.03971000      15.71401000       0.11091600       0.11075400       0.12575900
O       11.01249000      13.43679000      11.55045000       0.13730600       0.12184600       0.14371000
O       14.85921000       9.27998000      14.49343000       0.16730300       0.09521500      -0.06058000
O       18.62666000      13.35774000      11.91715000       0.08512000      -0.23797100      -0.17704600
O       12.08428000      16.07783000      18.95664000      -0.00827000      -0.18714000      -0.06464300
O       14.84380000      20.96345000      15.22756000      -0.02911100      -0.14607600      -0.20473000
O       19.16004000      16.70945000      18.22660000      -0.13486500       0.07091700      -0.12649100
O       15.43866000      16.19271000      14.68512000       0.19319300       0.07576500      -0.25527200
O       11.27767000      16.60312000      11.54830000       0.14597800      -0.09426500      -0.29087200
O       14.87925000      11.91152000      14.58930000      -0.03394000       0.12131400      -0.10088200
O       18.54943000      16.92821000      11.64569000       0.28167000      -0.00982300       0.13962800
O        9.88545000      16.77918000      17.03835000       0.08909100       0.30840900       0.33536000
O       17.40770000      16.13700000      16.26267000       0.43999800       0.27775600      -0.02449200
O       13.26795000      16.49336000      13.10038000       0.00476300      -0.08355700      -0.10122600
O       16.81618000      11.03796000      16.40273000      -0.15043100       0.18904000       0.14565700
O       12.91974000      11.37768000      12.92070000       0.36787900      -0.07484700       0.06970500
O       20.94417000      16.43379000      13.21705000      -0.25623000       0.05394000       0.07929500
O        8.97965000      13.99738000      16.54061000       0.26179600       0.00628700      -0.05010900
O       16.71806000      18.64043000      16.78596000      -0.02377000       0.29619400       0.12430100
O       11.91571000      19.34341000      13.85177000       0.43073200      -0.09786000       0.31017000
O       16.91260000      13.64017000      16.84755000      -0.09583300       0.03654600       0.24912800
O       12.83735000      13.97402000      13.46342000       0.35942700      -0.05813700      -0.11348700
O       20.78691000      13.35988000      13.64327000       0.20394900       0.43482300       0.22971700
