72
Lattice="30.0 0.0 0.0 0.0 30.0 0.0 0.0 0.0 30.0" Properties=species:S:1:pos:R:3:forces:R:3 energy=-654.82326445 stress="-5.09184 1.52007 1.12542 1.52007 -9.68184 0.38219 1.12542 0.38219 -8.29586" pbc="T T T"
Zr      15.61620000      16.91356000      16.96576000       0.14535600      -0.03796500       0.10931400
Zr      11.21012000      17.52246000      13.31724000      -0.00835400      -0.12475800       0.00931200
Zr      15.13663000      12.32848000      16.85456000      -0.14100800      -0.06580900      -0.05036800
Zr      11.31761000      12.60188000      13.32971000      -0.21507200       0.04440700      -0.02663300
Zr      19.28674000      17.47924000      13.36175000       0.14093400       0.10312200      -0.01216500
Zr      19.27320000      11.93721000      13.47827000       0.14163200       0.06127500       0.10875300
Zr      11.78247000      17.19666000      17.36110000      -0.01266000       0.01023900       0.05986200
Zr      10.55278000      12.83367000      16.49339000       0.05651600       0.27762800      -0.16511000
Zr      18.66965000      17.76553000      16.63588000       0.07910300      -0.07685300      -0.05294500
Zr      15.21286000      17.03855000      12.81439000      -0.17325800       0.09362600      -0.00432400
Zr      18.59344000      12.26008000      16.64820000       0.02735900      -0.18666700      -0.23111500
Zr      14.71483000      12.65295000      12.50084000      -0.34053600       0.41134800       0.05186800
Zr      12.58268000      14.13569000      18.49148000      -0.07405200      -0.08672100      -0.07260300
Zr       9.63273000      15.66916000      15.44289000      -0.20347700       0.00306500       0.06280300
Zr      16.20238000      19.53957000      14.85605000      -0.02867600      -0.02205000       0.16034100
Zr      16.82708000      14.49326000      14.95362000      -0.10440700       0.07110700       0.23573600
Zr      12.39871000      14.87208000      11.56790000      -0.08351000       0.22499300       0.11934100
Zr      16.46627000      10.54586000      14.20514000       0.52154800      -0.59994500       0.62595400
Zr      13.13359000      19.82444000      15.39754000      -0.00669100      -0.14871300      -0.17029300
Zr      18.08473000      14.96130000      18.06022000       0.15842800       0.06779200      -0.14582600
Zr      13.43074000      15.35258000      15.03430000       0.08561700      -0.15000200      -0.32355300
Zr      13.37496000      10.51510000      14.82486000      -0.07803200       0.01949700       0.10833000
Zr      20.40841000      14.97962000      14.57682000      -0.07745700      -0.11607400       0.02687300
Zr      17.71224000      15.05893000      11.83890000       0.04405200      -0.22039200      -0.04191700
O       13.68138000      16.35358000      16.84155000      -0.32499400       0.15114100       0.25119200
O        9.39667000      16.96012000      13.91521000      -0.04349000      -0.11008800       0.06567100
O       13.60332000      11.05151000      16.69556000      -0.09005100      -0.29946900       0.01750200
O       18.35793000      15.54924000      13.81621000       0.21342800      -0.06063900      -0.24316600
O       18.26840000      10.19742000      13.45420000       0.41578100      -0.00994200       0.00677600
O       12.34677000      19.12400000      17.08521000      -0.07758200       0.02191800      -0.07338000
O       12.18516000      14.16485000      16.48660000      -0.27504400       0.06301200       0.04766100
O       15.90182000      18.86994000      13.00517000       0.07170900       0.13795600       0.12033000
O       19.36352000      14.30557000      16.22987000      -0.26818600      -0.10013000      -0.00535900
O       16.11110000      14.12512000      13.02250000      -0.20915100       0.13892900       0.14462700
O       14.28224000      13.15497000      18.51284000       0.31749600       0.11007200      -0.20605900
O       10.43445000      13.96676000      14.51259000       0.13173400      -0.21068600      -0.19485000
O       18.31513000      18.95290000      14.62935000      -0.26373800      -0.15006700      -0.02031700
O       17.74688000      12.66610000      14.56176000      -0.16656700      -0.07716400      -0.09946600
O       13.99196000      13.86022000      10.97136000      -0.05920400      -0.30717400       0.22789000
O       16.26912000      16.01774000      18.55335000       0.13360800      -0.15309000      -0.22109800
O       11.64856000      16.52774000      15.17442000      -0.16347300      -0.13994800       0.08220600
O       11.21138000      11.37624000      15.07108000      -0.16186300       0.09907200      -0.03298800
O       19.94654000      17.01458000      15.41931000       0.22287700      -0.00882100       0.10572200
O       15.98577000      16.12991000      11.32496000      -0.23000500       0.17330200       0.04329700
O       19.92886000      11.49621000      15.41816000      -0.44719600       0.12065700       0.15446600
O       16.02497000      11.24272000      12.37985000      -0.68262300       0.31224500      -0.74338600
O       11.08982000      12.86307000      18.42339000       0.08672700      -0.12270500       0.10188700
O       14.49564000      18.42043000      15.29953000       0.00197400       0.11298900      -0.02867300
O       18.72141000      13.12386000      18.53619000       0.17215800       0.21118000      -0.09986100
O       14.80658000      14.05394000      15.71173000       0.09881000       0.21189500       0.08850800
O       11.02812000      13.46226000      11.55133000       0.03365800       0.09311600       0.05906800
O       14.85846000       9.28373000      14.47054000       0.05801200       0.06968900      -0.05679600
O       18.62165000      13.35278000      11.92011000       0.10891800      -0.31052600      -0.17749400
O       12.08756000      16.06051000      18.94694000       0.02756800      -0.21595300       0.03904900
O       14.83047000      20.96148000      15.21676000       0.01766200      -0.10574900      -0.20488500
O       19.13847000      16.72460000      18.22894000      -0.05324200       0.04311100      -0.04197800
O       15.45964000      16.19922000      14.68066000       0.16711200       0.03660100      -0.17621400
O       11.28821000      16.61103000      11.56269000       0.10333800      -0.02903900      -0.22072500
O       14.86187000      11.92266000      14.61502000       0.00035600       0.04220900      -0.15166300
O       18.55067000      16.92266000      11.64033000       0.25482100      -0.05725500       0.09828000
O        9.88202000      16.77975000      17.04814000      -0.05447900       0.14075000       0.11790200
O       17.42271000      16.13789000      16.26277000       0.25713200       0.23066700      -0.06872500
O       13.27623000      16.51643000      13.11458000      -0.05658700      -0.13004800      -0.12072700
O       16.80803000      11.03997000      16.39823000      -0.08233200       0.22933600       0.23237700
O       12.92819000      11.39457000      12.92356000       0.25105500      -0.00687800       0.01385300
O       20.93814000      16.42122000      13.22475000      -0.14581700       0.06001700       0.04288100
O        8.98164000      13.98507000      16.52987000       0.11125600       0.13198800      -0.03283000
O       16.70867000      18.64876000      16.75461000      -0.06114000       0.17193000       0.23233500
O       11.87908000      19.36005000      13.88120000       0.42029300      -0.15695500       0.24021100
O       16.91284000      13.64051000      16.84264000      -0.16725500       0.01755600       0.24158100
O       12.85011000      13.99164000      13.45391000       0.34034600      -0.14115600      -0.06825900
O       20.78761000      13.36760000      13.64384000       0.21283400       0.21999500       0.13199200
