72
Lattice="30.0 0.0 0.0 0.0 30.0 0.0 0.0 0.0 30.0" Properties=species:S:1:pos:R:3:forces:R:3 energy=-655.1118859 stress="-6.57968 1.0803 0.94341 1.0803 -8.67949 0.07778 0.94341 0.07778 -8.85034" pbc="T T T"
Zr      15.61868000      16.91314000      16.97713000       0.00655500      -0.00761800      -0.01556800
Zr      11.21157000      17.50759000      13.31756000      -0.13656300      -0.26282700      -0.12448300
Zr      15.12104000      12.32670000      16.84932000      -0.03891400      -0.11858500      -0.09397300
Zr      11.30751000      12.58583000      13.31863000      -0.07350400       0.24260900       0.03188900
Zr      19.29880000      17.49500000      13.36244000      -0.01355600      -0.17543200      -0.19197600
Zr      19.28137000      11.95446000      13.47829000       0.12560600       0.01835200      -0.01720500
Zr      11.78489000      17.20252000      17.37114000      -0.24839700      -0.16014700       0.02394300
Zr      10.56503000      12.85209000      16.48141000      -0.22180100      -0.02182300      -0.04026600
Zr      18.68091000      17.76573000      16.62836000      -0.02999800       0.11215500       0.17775600
Zr      15.20223000      17.06163000      12.81215000      -0.19694100      -0.00661800      -0.01006000
Zr      18.57629000      12.26104000      16.64823000       0.06454100      -0.19210300      -0.17017700
Zr      14.68823000      12.67448000      12.50692000       0.05962500       0.06060400       0.10606600
Zr      12.58254000      14.13169000      18.48550000       0.01918400      -0.09573200       0.00267000
Zr       9.61794000      15.67537000      15.45916000       0.05046500      -0.02745800      -0.07579000
Zr      16.20387000      19.53706000      14.87994000      -0.00771500      -0.05264800       0.06411200
Zr      16.81719000      14.50130000      14.97583000       0.21157900      -0.02872100      -0.13084200
Zr      12.39770000      14.88082000      11.57608000      -0.10287400       0.14969800       0.04075100
Zr      16.48922000      10.51538000      14.22838000       0.23725800       0.40805600      -0.54984600
Zr      13.14350000      19.81699000      15.39152000      -0.06624700       0.02369400       0.03418000
Zr      18.10737000      14.95907000      18.04460000       0.08162300       0.24752800      -0.03978800
Zr      13.43827000      15.34027000      15.01012000      -0.24744700       0.24166000       0.05437400
Zr      13.37426000      10.52167000      14.82101000       0.14801400      -0.10151800       0.06554300
Zr      20.39248000      14.98924000      14.58441000       0.06824800      -0.28224100      -0.18990300
Zr      17.71236000      15.03876000      11.84043000      -0.00748300      -0.17062200       0.09290600
O       13.65544000      16.36276000      16.86325000       0.19766900       0.02383400      -0.13879400
O        9.39350000      16.94715000      13.91589000      -0.00771700       0.02691700      -0.07431200
O       13.59328000      11.02312000      16.70219000      -0.00428900      -0.09116600      -0.06258900
O       18.38172000      15.53685000      13.79145000       0.05160500      -0.14057100       0.10151100
O       18.31243000      10.19599000      13.45464000      -0.21406900       0.01011100       0.08469300
O       12.33026000      19.12680000      17.07229000      -0.05085100       0.00451700       0.02936200
O       12.15002000      14.17979000      16.48508000       0.12778600       0.13434000       0.00864000
O       15.90487000      18.88034000      13.02437000       0.07912000       0.17273500       0.02472800
O       19.33201000      14.29328000      16.22165000      -0.22961200       0.04706700      -0.09162100
O       16.09739000      14.15270000      13.04181000       0.05394700       0.13088500       0.01328900
O       14.31416000      13.17617000      18.49112000       0.00493500       0.13215000      -0.08495900
O       10.43913000      13.95121000      14.49458000       0.01800900      -0.01678600      -0.09123800
O       18.28745000      18.93365000      14.63297000       0.01057300      -0.12500200       0.06386100
O       17.73038000      12.65475000      14.54940000      -0.26474500       0.11033400       0.04302200
O       13.96841000      13.83895000      10.98684000      -0.02308600      -0.03557400      -0.18891900
O       16.28765000      15.99782000      18.53354000       0.00538600      -0.05836000      -0.09646300
O       11.63285000      16.51017000      15.17599000       0.07990300      -0.11635300       0.02911800
O       11.19095000      11.38713000      15.06989000       0.01930500      -0.06568800      -0.03575400
O       19.97615000      17.01371000      15.43163000       0.17007100       0.09089500       0.03234500
O       15.96468000      16.15258000      11.33075000       0.13712700       0.02458800      -0.00217000
O       19.89405000      11.49680000      15.42420000      -0.15305700       0.06689600       0.20168400
O       15.95786000      11.25761000      12.33074000       0.01275700      -0.31358000       0.30056400
O       11.09897000      12.84850000      18.42871000       0.12351000      -0.03581000      -0.07377800
O       14.50081000      18.42176000      15.30659000       0.09106700      -0.14075400       0.03740800
O       18.74856000      13.14727000      18.52081000       0.23389800      -0.06409000       0.09848500
O       14.81139000      14.07819000      15.72277000      -0.00269800       0.02422300       0.06950000
O       11.02724000      13.47238000      11.55723000      -0.03980000       0.05485600       0.01367700
O       14.87552000       9.29045000      14.47122000       0.02316400      -0.03168500       0.00486300
O       18.63713000      13.31761000      11.90047000      -0.14184700       0.18482400      -0.13630700
O       12.08549000      16.03728000      18.95411000      -0.06767600      -0.07028600       0.03978800
O       14.83188000      20.95349000      15.19328000       0.00622300       0.11346900      -0.09993200
O       19.13963000      16.72805000      18.22716000       0.04561900       0.11535400      -0.03920900
O       15.47241000      16.20296000      14.66393000      -0.00000600       0.11962500       0.04222600
O       11.29483000      16.61247000      11.53672000       0.00642300       0.15272600       0.02841400
O       14.87163000      11.91878000      14.60812000       0.01854100      -0.04085700       0.30059600
O       18.57721000      16.91036000      11.64807000       0.02128000      -0.15938400      -0.00599900
O        9.87072000      16.79273000      17.05346000       0.09884900       0.19631100       0.13948500
O       17.44828000      16.16146000      16.24990000      -0.10107400       0.05053600      -0.15283300
O       13.25879000      16.49487000      13.09925000       0.09583000      -0.05484100       0.04788100
O       16.80079000      11.05599000      16.41958000      -0.11779800      -0.10126100       0.02438500
O       12.94144000      11.39350000      12.93169000      -0.12264600      -0.07154500       0.03096900
O       20.92835000      16.42509000      13.22916000       0.08163700       0.05185600       0.01153100
O        8.98813000      14.00815000      16.52618000       0.04569200      -0.01795800       0.01541300
O       16.70359000      18.66369000      16.79272000      -0.03630200      -0.03966500       0.15909400
O       11.92589000      19.32578000      13.88718000       0.12649300      -0.15464700      -0.05517900
O       16.89374000      13.64284000      16.86749000      -0.11598500       0.02484600       0.02126800
O       12.88110000      13.97403000      13.45070000       0.01325900      -0.14811600       0.12915800
O       20.81539000      13.37621000      13.65481000       0.01232500       0.22982400       0.23878700
