72
Lattice="30.0 0.0 0.0 0.0 30.0 0.0 0.0 0.0 30.0" Properties=species:S:1:pos:R:3:forces:R:3 energy=-655.26171116 stress="-6.39503 0.4624 0.51088 0.4624 -8.97486 -0.4803 0.51088 -0.4803 -8.54339" pbc="T T T"
Zr      15.62150000      16.91043000      16.97477000       0.02727600       0.06221200      -0.06018500
Zr      11.20129000      17.48065000      13.30979000      -0.03000100       0.07347300       0.01299300
Zr      15.11294000      12.31079000      16.82815000       0.00716400      -0.02658500      -0.00705900
Zr      11.30065000      12.59435000      13.31684000       0.11398300      -0.11132400       0.04165900
Zr      19.30558000      17.48143000      13.35022000      -0.07409400      -0.10676400      -0.05480300
Zr      19.29407000      11.96783000      13.48540000       0.04246100       0.05862500       0.03702100
Zr      11.77161000      17.18740000      17.38861000      -0.02810400       0.08112800      -0.03241500
Zr      10.56007000      12.85298000      16.47272000       0.03106900      -0.01000100       0.02114700
Zr      18.68904000      17.78218000      16.63012000      -0.05166600       0.14071400       0.00775600
Zr      15.18685000      17.08539000      12.81036000       0.06063900       0.03552300      -0.03939500
Zr      18.54597000      12.25082000      16.65819000       0.02988700      -0.13726000       0.01984900
Zr      14.67086000      12.69816000      12.53110000       0.03805400      -0.06715100      -0.05862900
Zr      12.59345000      14.11437000      18.48313000      -0.13739600       0.06121200      -0.02243300
Zr       9.61749000      15.67885000      15.46515000       0.05015900       0.13629700       0.04921800
Zr      16.20325000      19.52816000      14.89915000      -0.07178100       0.08520400      -0.00906000
Zr      16.83279000      14.51100000      14.99237000      -0.03821500      -0.04625100      -0.11960100
Zr      12.39634000      14.89584000      11.58465000       0.06984300      -0.08213300      -0.05222300
Zr      16.50726000      10.54435000      14.17726000      -0.05788100      -0.04758900       0.06153700
Zr      13.14722000      19.81121000      15.39364000      -0.08170600      -0.06755400       0.06761600
Zr      18.12920000      14.97300000      18.02612000       0.05097000      -0.03553600       0.07692400
Zr      13.43064000      15.35827000      15.01631000       0.04326100      -0.01859300       0.06821100
Zr      13.39461000      10.50252000      14.82421000      -0.06988600      -0.13388900      -0.11974600
Zr      20.38437000      14.99739000      14.58787000       0.23310600      -0.24899400      -0.04223900
Zr      17.70204000      15.02158000      11.85321000       0.01248800      -0.14813000      -0.10082100
O       13.65840000      16.37776000      16.85455000       0.04738800       0.06261300      -0.00659200
O        9.38379000      16.93923000      13.90928000      -0.05186800      -0.05196200      -0.00537700
O       13.58361000      10.98721000      16.70304000       0.09684900       0.07555000       0.09554800
O       18.40669000      15.50517000      13.78736000       0.05457600       0.04352400       0.14015600
O       18.33355000      10.20371000      13.45986000       0.00893400       0.08757400      -0.12567200
O       12.31292000      19.12263000      17.07120000       0.01717300      -0.07355700      -0.04510600
O       12.14224000      14.20227000      16.48514000       0.01327500      -0.05369600       0.04256200
O       15.91541000      18.90255000      13.03296000      -0.01382500      -0.03505800      -0.02689100
O       19.28027000      14.29132000      16.19576000      -0.17172600       0.10072800      -0.12695600
O       16.09273000      14.18119000      13.04834000      -0.04460500      -0.16838300      -0.02365500
O       14.33177000      13.20565000      18.46454000       0.01997000      -0.05866100       0.00121600
O       10.43791000      13.95405000      14.47858000      -0.09779900       0.15816600       0.08797500
O       18.27124000      18.90150000      14.64146000       0.10470100      -0.08928600       0.03761800
O       17.69776000      12.64672000      14.53298000      -0.08254100       0.01529800       0.00877600
O       13.94834000      13.82196000      10.97720000       0.02765100      -0.01812600       0.06710000
O       16.30169000      15.97601000      18.51045000       0.04229900      -0.03709400       0.03580300
O       11.62213000      16.48213000      15.17897000      -0.07618600       0.06971700      -0.02265800
O       11.17615000      11.39120000      15.06432000      -0.02201800       0.02427900       0.01306600
O       20.01164000      17.02930000      15.45019000       0.02286300       0.02682100      -0.06143000
O       15.96916000      16.16939000      11.33780000       0.01670400       0.11703100       0.11118000
O       19.86599000      11.50223000      15.43567000      -0.04207400       0.06400900       0.10976300
O       15.91820000      11.22588000      12.35134000      -0.11140700       0.14594300      -0.01376200
O       11.11506000      12.82814000      18.41617000       0.01795600      -0.11721500      -0.15082300
O       14.50941000      18.41051000      15.31166000       0.01079000       0.08169300       0.08542400
O       18.79655000      13.15870000      18.51522000       0.01456500       0.07460400      -0.10316900
O       14.80907000      14.10551000      15.73175000       0.09536700      -0.07250000      -0.03434900
O       11.02274000      13.49826000      11.55926000      -0.04431700       0.09014100       0.03213300
O       14.89723000       9.29571000      14.46638000       0.09249200      -0.03087200      -0.03066500
O       18.63484000      13.30440000      11.87364000      -0.09935500       0.11163600       0.04324500
O       12.07268000      16.01233000      18.96068000      -0.00698700      -0.01362800       0.03469100
O       14.82828000      20.96126000      15.16367000      -0.01082200      -0.11059400       0.02963100
O       19.14729000      16.74983000      18.22710000       0.00936200      -0.01870300      -0.00784000
O       15.48159000      16.22329000      14.65267000       0.03268900       0.02329400      -0.00143600
O       11.29932000      16.63520000      11.52051000       0.00995300      -0.00968700      -0.06774300
O       14.87795000      11.91875000      14.64267000      -0.11854700       0.15595200      -0.02004600
O       18.59400000      16.87190000      11.64361000       0.02070100      -0.02548500       0.00140000
O        9.86335000      16.82197000      17.06723000      -0.03551400      -0.02865800      -0.13273800
O       17.45496000      16.18634000      16.22230000       0.00073200       0.02602400       0.02683600
O       13.25131000      16.47371000      13.09708000      -0.00036700      -0.03002100       0.04175100
O       16.78365000      11.05162000      16.43400000       0.02324400       0.00764800       0.08262000
O       12.93467000      11.39014000      12.93946000       0.01203000      -0.00586400       0.02584800
O       20.93648000      16.42751000      13.23268000       0.07731000       0.03404800      -0.02657800
O        8.99149000      14.02478000      16.52301000      -0.01712700      -0.08153100       0.03613100
O       16.69544000      18.66982000      16.83687000       0.03751800      -0.03338500      -0.00696200
O       11.96462000      19.27568000      13.88304000       0.02595500      -0.05363300      -0.08605900
O       16.87313000      13.64796000      16.88259000       0.10806800      -0.02308000       0.00211500
O       12.90266000      13.94875000      13.46153000      -0.07284200       0.06854700       0.01915400
O       20.83834000      13.38092000      13.67910000      -0.11082100       0.12920600       0.16944800
