72
Lattice="30.0 0.0 0.0 0.0 30.0 0.0 0.0 0.0 30.0" Properties=species:S:1:pos:R:3:forces:R:3 energy=-655.32051297 stress="-6.12905 0.40331 -0.12404 0.40331 -7.04685 -0.27725 -0.12404 -0.27725 -8.01721" pbc="T T T"
Zr      15.63275000      16.91474000      16.97284000      -0.00664300       0.03143500       0.02390000
Zr      11.19235000      17.47201000      13.29981000       0.00615100       0.01714300       0.02520200
Zr      15.11246000      12.31015000      16.82591000       0.00544700      -0.01393200      -0.01971400
Zr      11.30789000      12.59891000      13.32640000      -0.03540600      -0.00187200      -0.01036700
Zr      19.30043000      17.45388000      13.34833000       0.05259300      -0.00310400       0.01285500
Zr      19.29157000      11.98030000      13.50013000       0.00053300      -0.01096600      -0.02583900
Zr      11.76584000      17.18478000      17.39044000      -0.04918300      -0.02111900      -0.04087500
Zr      10.55476000      12.85301000      16.46522000       0.00725800      -0.00020900      -0.01123500
Zr      18.69496000      17.79950000      16.62516000       0.01980700      -0.01779800      -0.03325000
Zr      15.18070000      17.09947000      12.81327000      -0.03041300       0.00923200       0.03963200
Zr      18.53136000      12.24217000      16.67154000       0.05788800      -0.00224600       0.00216200
Zr      14.66259000      12.70030000      12.53559000      -0.03103900      -0.04332500      -0.00242700
Zr      12.58451000      14.10765000      18.48177000      -0.07942500      -0.01158000       0.02469200
Zr       9.61230000      15.68599000      15.46591000      -0.04845400       0.02659400       0.01075700
Zr      16.19954000      19.53252000      14.90172000       0.01445000       0.01441500       0.04853900
Zr      16.84204000      14.50871000      14.98853000       0.06844100       0.03857100       0.02844200
Zr      12.40183000      14.89505000      11.58310000      -0.02804300       0.03025800       0.01901700
Zr      16.50779000      10.55785000      14.17126000       0.00669600      -0.03767200       0.00643800
Zr      13.13838000      19.80079000      15.39615000      -0.01868700      -0.04037200      -0.03010600
Zr      18.13946000      14.98281000      18.02026000      -0.01594800       0.01135800      -0.03998300
Zr      13.43553000      15.36003000      15.02763000      -0.02286100       0.03352700      -0.00100800
Zr      13.39818000      10.48712000      14.82072000      -0.00860700      -0.08924300      -0.00403700
Zr      20.41395000      14.99960000      14.60327000       0.05902600       0.03572500       0.00501500
Zr      17.69767000      15.01103000      11.85036000      -0.00050900      -0.00936800       0.01998000
O       13.66176000      16.39586000      16.85104000       0.03747800      -0.02050600      -0.00431600
O        9.37116000      16.93122000      13.90283000      -0.00239100      -0.01147000      -0.03163600
O       13.59380000      10.97742000      16.70143000       0.03430200       0.00290800       0.03621000
O       18.42092000      15.49889000      13.79504000      -0.01746600       0.00557300      -0.06453100
O       18.33642000      10.22387000      13.43502000      -0.06842200       0.02475800      -0.04426300
O       12.30601000      19.11077000      17.06904000      -0.00488100       0.04324700      -0.00034700
O       12.14650000      14.20495000      16.48841000       0.01446100      -0.01333300      -0.01062000
O       15.91831000      18.91244000      13.03548000      -0.01566400       0.02310200       0.00835700
O       19.23557000      14.30416000      16.15864000      -0.00824500      -0.01980100      -0.02285000
O       16.08867000      14.16261000      13.04397000       0.04606600       0.01553100       0.02695400
O       14.32890000      13.20879000      18.45651000      -0.02572300      -0.02772900       0.03120200
O       10.42996000      13.97076000      14.48081000       0.00675800      -0.02192300       0.04636400
O       18.27777000      18.87896000      14.65034000      -0.02107500       0.01645700      -0.03683400
O       17.67433000      12.63566000      14.52748000      -0.05562300      -0.07742400       0.05441000
O       13.94822000      13.81410000      10.97980000       0.00015200       0.02599100      -0.01800700
O       16.31209000      15.96527000      18.50668000      -0.00394900       0.01903000       0.01840000
O       11.61226000      16.48947000      15.17838000       0.02155400      -0.00288600       0.00286500
O       11.17060000      11.39300000      15.06115000      -0.01289000       0.00998700       0.01712100
O       20.02383000      17.03881000      15.44913000       0.00273300      -0.03326500       0.01840900
O       15.97626000      16.19179000      11.35253000      -0.03446900       0.01322000       0.03768600
O       19.85794000      11.51155000      15.45214000      -0.00292500       0.00958600      -0.00200500
O       15.89643000      11.22843000      12.35277000       0.04236300      -0.01180300      -0.03518700
O       11.12578000      12.79633000      18.39310000       0.01932100      -0.04130800       0.00913000
O       14.51566000      18.41730000      15.33205000       0.03353800      -0.03130500       0.01419700
O       18.82302000      13.16907000      18.49874000       0.03429300       0.05554600       0.00074200
O       14.82470000      14.10862000      15.72613000       0.02502800       0.00864500      -0.00764100
O       11.01300000      13.51820000      11.57361000      -0.01327100      -0.00247800       0.01788900
O       14.91779000       9.29267000      14.45895000      -0.00766500       0.05581700       0.00407000
O       18.62652000      13.30487000      11.87501000       0.04018900      -0.02605800       0.05730400
O       12.06360000      16.00683000      18.96417000       0.00136200      -0.05236300      -0.02160400
O       14.81754000      20.95107000      15.16269000      -0.03174900       0.04748000       0.03241200
O       19.15268000      16.75535000      18.22316000       0.03256600       0.00075100      -0.02072300
O       15.49026000      16.23218000      14.64760000       0.01930400      -0.02520900      -0.01541200
O       11.30688000      16.64012000      11.50635000       0.03603000      -0.02985500      -0.02787900
O       14.85480000      11.92749000      14.64589000       0.05395300      -0.01028000      -0.02015000
O       18.60143000      16.84550000      11.63497000       0.04356600      -0.00433100      -0.04929400
O        9.85494000      16.83705000      17.05959000      -0.02152200      -0.01656200      -0.04013200
O       17.45813000      16.20106000      16.21942000       0.00283300      -0.00115100       0.01419800
O       13.24830000      16.46261000      13.10548000      -0.00871800       0.02031000       0.00209100
O       16.78253000      11.04430000      16.45140000      -0.04597800       0.01155200       0.01280400
O       12.93154000      11.38058000      12.94886000      -0.04664300       0.01845800      -0.03615400
O       20.95267000      16.42702000      13.23178000      -0.03382800      -0.02949500       0.02834300
O        8.98927000      14.02001000      16.53162000      -0.01943400       0.02899300       0.01180400
O       16.69987000      18.67504000      16.84656000       0.04360900       0.03030500      -0.02999100
O       11.98366000      19.25436000      13.86666000      -0.00303600       0.01584500      -0.03177000
O       16.88216000      13.64241000      16.88461000      -0.06457700       0.00945500       0.00613900
O       12.89571000      13.95211000      13.46831000       0.02397500       0.02079500      -0.00191200
O       20.83781000      13.38176000      13.70350000       0.03163800       0.03173600       0.01636900
