72
Lattice="30.0 0.0 0.0 0.0 30.0 0.0 0.0 0.0 30.0" Properties=species:S:1:pos:R:3:forces:R:3 energy=-655.32958228 stress="-6.43978 0.46654 -0.55818 0.46654 -7.06293 -0.27142 -0.55818 -0.27142 -8.10115" pbc="T T T"
Zr      15.63381000      16.91865000      16.97550000       0.03203100      -0.00168100       0.01310300
Zr      11.19124000      17.47037000      13.29865000       0.01145300      -0.01331100      -0.03224100
Zr      15.11251000      12.31111000      16.82530000      -0.01195800       0.01627900      -0.01286800
Zr      11.30757000      12.60086000      13.32785000      -0.02567300      -0.00207000      -0.00033700
Zr      19.30147000      17.44647000      13.34855000      -0.02218400       0.04767300      -0.06608300
Zr      19.28902000      11.98354000      13.50218000      -0.01937900       0.00493800      -0.02950200
Zr      11.76249000      17.18205000      17.38769000       0.01447000       0.01609200      -0.01980800
Zr      10.55374000      12.85224000      16.46173000       0.00652800       0.03899500       0.01020200
Zr      18.69804000      17.80153000      16.62127000      -0.00720000       0.00435800       0.02473600
Zr      15.17610000      17.10365000      12.81823000       0.03598100       0.03200100       0.00649000
Zr      18.53206000      12.24279000      16.67421000      -0.03388900      -0.01766700       0.02884900
Zr      14.65770000      12.69577000      12.53680000       0.04372200       0.02587500      -0.03258900
Zr      12.57723000      14.10385000      18.48417000       0.06297200      -0.06867000       0.00419200
Zr       9.60475000      15.68758000      15.46606000      -0.00163100      -0.02738700      -0.02115500
Zr      16.20027000      19.53423000      14.90476000      -0.01921100       0.05485500       0.01538600
Zr      16.85049000      14.50882000      14.98850000      -0.02645500       0.02516200       0.01845500
Zr      12.40171000      14.89647000      11.58391000       0.01305700      -0.00890100       0.01887500
Zr      16.50820000      10.55993000      14.17185000       0.00823400       0.01874300      -0.01760500
Zr      13.13587000      19.79682000      15.39359000       0.04999200      -0.03773100       0.00950300
Zr      18.13974000      14.98668000      18.01408000      -0.00623700      -0.02199600       0.03216600
Zr      13.43516000      15.36191000      15.02942000       0.06465800      -0.03960400       0.01388600
Zr      13.39962000      10.48059000      14.81981000      -0.03894300      -0.00363600       0.06936000
Zr      20.42643000      15.00349000      14.60988000       0.00634700      -0.03056500      -0.01333600
Zr      17.69703000      15.01023000      11.85184000      -0.03108100      -0.04329400      -0.01262300
O       13.66469000      16.39918000      16.85037000      -0.00159500      -0.01337100       0.01295400
O        9.36789000      16.92904000      13.89837000       0.02121900      -0.00834200      -0.02250300
O       13.59917000      10.97446000      16.70139000      -0.00990500      -0.04207500      -0.01725700
O       18.42246000      15.49906000      13.78989000       0.02385800       0.00686300       0.01400500
O       18.33037000      10.22975000      13.42395000       0.00786100       0.01832800      -0.02160100
O       12.30358000      19.11112000      17.06945000      -0.01852400      -0.00389900      -0.02414500
O       12.14944000      14.20484000      16.48716000      -0.02107200      -0.02492200       0.02686000
O       15.91787000      18.91718000      13.03750000      -0.02774900       0.01678600       0.03728300
O       19.22503000      14.30604000      16.14723000      -0.00549100      -0.03917900      -0.01100600
O       16.09237000      14.15886000      13.04571000       0.02535200       0.00517100       0.00507000
O       14.32415000      13.20697000      18.45751000      -0.04585400      -0.00936600       0.01645000
O       10.42984000      13.97207000      14.48408000      -0.02106000      -0.00036200       0.06814200
O       18.27758000      18.87562000      14.64980000       0.00468700       0.00345700      -0.05446700
O       17.66413000      12.62665000      14.53150000       0.01809700      -0.07386700       0.02876400
O       13.94770000      13.81579000      10.97886000       0.00319600      -0.00021800       0.01348900
O       16.31457000      15.96426000      18.50818000      -0.02240600       0.05454100      -0.01278000
O       11.61262000      16.49305000      15.17811000      -0.03912000      -0.01194900       0.02814900
O       11.16886000      11.39398000      15.06110000      -0.02810300      -0.00111300       0.03687000
O       20.02704000      17.03715000      15.44892000       0.02131400      -0.02090600       0.01329800
O       15.97498000      16.19824000      11.35791000      -0.01835900      -0.00180900       0.06517600
O       19.85716000      11.51414000      15.45680000       0.01838900      -0.01071400      -0.05029600
O       15.89585000      11.22842000      12.34896000       0.00690300      -0.00433300      -0.00125900
O       11.13000000      12.78464000      18.38964000      -0.04928200      -0.03954400      -0.01836800
O       14.52034000      18.41605000      15.33895000      -0.00020000      -0.00615500      -0.01301400
O       18.83197000      13.17517000      18.49507000       0.02464200       0.06696200      -0.01096500
O       14.83151000      14.11067000      15.72363000      -0.04065800       0.01797500      -0.02136800
O       11.00955000      13.52207000      11.58053000      -0.02785700      -0.00727500      -0.03352100
O       14.92140000       9.29574000      14.45764000      -0.01478600      -0.04037800      -0.00029000
O       18.62876000      13.30134000      11.88081000       0.03574300       0.00231200       0.06108400
O       12.06133000      16.00276000      18.96280000      -0.03461100       0.00529800      -0.04938500
O       14.81133000      20.95197000      15.16635000      -0.02127700       0.00240300       0.01876800
O       19.15619000      16.75597000      18.22008000       0.03168100       0.01356300      -0.03291900
O       15.49419000      16.23116000      14.64557000       0.00963900       0.00415300       0.00014000
O       11.31215000      16.63801000      11.50119000      -0.00497000       0.04232600       0.02322300
O       14.85097000      11.92497000      14.64352000       0.05085600       0.00604600      -0.01308900
O       18.60689000      16.83885000      11.62982000       0.06252200       0.02223000      -0.01445500
O        9.85043000      16.83989000      17.05517000      -0.01709100      -0.00410400      -0.01173000
O       17.46053000      16.20437000      16.22111000      -0.03140800       0.01225200      -0.00838300
O       13.24622000      16.46187000      13.10812000      -0.03008300       0.03967200       0.00638800
O       16.77970000      11.04239000      16.45701000      -0.02118500       0.02096000       0.00423100
O       12.92627000      11.37862000      12.95002000      -0.01595500       0.00881300      -0.04763800
O       20.95451000      16.42363000      13.23427000       0.02376100      -0.01640900      -0.01019300
O        8.98624000      14.02176000      16.53546000       0.01531500       0.02548900      -0.01294900
O       16.70514000      18.67998000      16.84461000       0.02772100      -0.00049100       0.00781900
O       11.98690000      19.25170000      13.85928000      -0.01686900       0.00752200      -0.02454000
O       16.87989000      13.64091000      16.88489000      -0.00090400       0.03206400       0.04229700
O       12.89435000      13.95630000      13.46944000       0.02221700      -0.03198500      -0.00086000
O       20.84045000      13.38475000      13.71058000       0.02579700       0.00912300       0.00146800
