72
Lattice="30.0 0.0 0.0 0.0 30.0 0.0 0.0 0.0 30.0" Properties=species:S:1:pos:R:3:forces:R:3 energy=-655.33535883 stress="-6.96472 0.17579 -0.65894 0.17579 -7.20478 -0.29094 -0.65894 -0.29094 -8.00743" pbc="T T T"
Zr      15.63673000      16.92115000      16.97817000      -0.04628300       0.03438100      -0.03657100
Zr      11.19114000      17.46847000      13.29619000       0.00651600       0.02182700       0.02389500
Zr      15.11175000      12.31247000      16.82394000      -0.00247900       0.00677200      -0.02967600
Zr      11.30522000      12.60198000      13.32864000       0.01391200      -0.00736200       0.01965200
Zr      19.30146000      17.44493000      13.34488000       0.01998000      -0.00032600      -0.03932100
Zr      19.28636000      11.98575000      13.50109000       0.02875500       0.00898900       0.02975400
Zr      11.76032000      17.18139000      17.38421000       0.00053300      -0.01979500      -0.00982100
Zr      10.55340000      12.85465000      16.46007000      -0.03159800       0.00718100       0.03462000
Zr      18.69976000      17.80282000      16.62012000       0.03513200       0.01104400      -0.02291100
Zr      15.17511000      17.10831000      12.82201000      -0.03732100       0.04284800       0.04604100
Zr      18.53086000      12.24187000      16.67785000       0.01076300      -0.04108200      -0.09282500
Zr      14.65744000      12.69447000      12.53527000       0.02232300       0.00721100       0.00308100
Zr      12.57601000      14.09732000      18.48602000      -0.07824200       0.00339700       0.00223300
Zr       9.59979000      15.68738000      15.46492000       0.01464100       0.01104600      -0.02720100
Zr      16.19978000      19.53904000      14.90820000       0.00508200       0.03075400      -0.00750000
Zr      16.85459000      14.51121000      14.98962000       0.00236000      -0.03491800      -0.01720200
Zr      12.40192000      14.89739000      11.58583000       0.00422500      -0.02612500       0.01380500
Zr      16.50908000      10.56182000      14.17104000      -0.02173800       0.01951600      -0.02458900
Zr      13.13704000      19.79153000      15.39260000      -0.04934800      -0.00716300      -0.01941600
Zr      18.13953000      14.98787000      18.01223000       0.01715600       0.04490800       0.02890600
Zr      13.43853000      15.36108000      15.03118000      -0.03575000       0.02585000       0.00870000
Zr      13.39768000      10.47535000      14.82367000       0.01437700       0.06503200      -0.05231600
Zr      20.43500000      15.00463000      14.61315000      -0.03540100      -0.00816200      -0.02793400
Zr      17.69473000      15.00661000      11.85204000       0.03229900       0.03591500       0.01403300
O       13.66686000      16.40011000      16.85076000       0.01441100      -0.00880800       0.00245800
O        9.36730000      16.92703000      13.89396000       0.01654100      -0.01182100      -0.02468400
O       13.60218000      10.97011000      16.70082000      -0.00934500      -0.03201000       0.01004500
O       18.42469000      15.49952000      13.78718000      -0.00160900      -0.00185900       0.02032700
O       18.32661000      10.23484000      13.41552000       0.05094200      -0.01653300      -0.02331900
O       12.30102000      19.11154000      17.06799000      -0.01388900      -0.01416900      -0.02182800
O       12.15001000      14.20296000      16.48815000       0.02263100      -0.01425500       0.03719600
O       15.91568000      18.92129000      13.04109000      -0.01509900       0.05004200       0.04736000
O       19.21805000      14.30440000      16.13941000      -0.03767400      -0.04620500       0.01109200
O       16.09657000      14.15700000      13.04731000       0.02241900      -0.00827700      -0.01404700
O       14.31833000      13.20494000      18.45940000       0.06202300      -0.05830900      -0.01202200
O       10.42845000      13.97258000      14.49089000       0.01467400      -0.02300500      -0.01230100
O       18.27752000      18.87393000      14.64563000       0.00470700       0.00160000      -0.04894100
O       17.65857000      12.61572000      14.53625000       0.00838000       0.02210500       0.02579800
O       13.94781000      13.81679000      10.97901000       0.00579000       0.00229000       0.01080600
O       16.31452000      15.96732000      18.50829000       0.00294800       0.02756100       0.03938200
O       11.61057000      16.49432000      15.17980000      -0.00826800      -0.03835600       0.02343200
O       11.16588000      11.39457000      15.06363000      -0.00771100      -0.01375700       0.00727100
O       20.03022000      17.03462000      15.44995000      -0.01211100       0.01960600       0.01882700
O       15.97276000      16.20218000      11.36575000       0.03833100      -0.04219200       0.00733200
O       19.85780000      11.51514000      15.45636000      -0.04000700       0.00772400       0.01270600
O       15.89620000      11.22807000      12.34634000      -0.00860000       0.00582300      -0.00188000
O       11.12963000      12.77464000      18.38633000      -0.01958600      -0.00414400       0.00350000
O       14.52348000      18.41461000      15.34242000       0.03566800      -0.00410600      -0.02311000
O       18.83929000      13.18364000      18.49205000       0.02354400       0.01610800       0.02123200
O       14.83337000      14.11292000      15.72080000      -0.00333100      -0.04933200       0.01672300
O       11.00555000      13.52389000      11.58271000       0.00126000       0.01550400      -0.02355500
O       14.92269000       9.29552000      14.45684000      -0.04626300      -0.03756600       0.01484200
O       18.63267000      13.29927000      11.88877000       0.00362700       0.03366300       0.01983300
O       12.05784000      15.99995000      18.95876000      -0.02501600      -0.01041400      -0.05896700
O       14.80597000      20.95313000      15.17002000       0.00766300      -0.00671300       0.01605600
O       19.16060000      16.75717000      18.21594000       0.01169600      -0.01716100      -0.00629900
O       15.49739000      16.23063000      14.64423000       0.00539100       0.00471600       0.00452500
O       11.31538000      16.63916000      11.49931000      -0.01089200       0.02122900      -0.01613000
O       14.85258000      11.92406000      14.64114000      -0.02089400      -0.01169200       0.02197400
O       18.61451000      16.83614000      11.62503000      -0.00075900      -0.03282900      -0.01834200
O        9.84663000      16.84113000      17.05131000      -0.00253800       0.01288500       0.01425300
O       17.45979000      16.20708000      16.22166000      -0.01461500      -0.00266600      -0.01413500
O       13.24314000      16.46412000      13.11016000       0.01896800       0.01982700       0.01260800
O       16.77613000      11.04272000      16.46082000      -0.01204300       0.02481500       0.03624000
O       12.92177000      11.37819000      12.94724000       0.00920400       0.00597900       0.01527000
O       20.95669000      16.42028000      13.23539000       0.01628100       0.01659100      -0.02778800
O        8.98541000      14.02446000      16.53705000      -0.01123100       0.02053900       0.00323700
O       16.71040000      18.68311000      16.84374000       0.00484600       0.00578400       0.02318700
O       11.98792000      19.25076000      13.85304000       0.00748700       0.00491300       0.01654300
O       16.87779000      13.64210000      16.88786000       0.01018800       0.02096300       0.05046700
O       12.89530000      13.95684000      13.47013000      -0.00151600      -0.04295200      -0.00501200
O       20.84402000      13.38707000      13.71500000       0.01348100      -0.04287500      -0.02959500
