72
Lattice="30.0 0.0 0.0 0.0 30.0 0.0 0.0 0.0 30.0" Properties=species:S:1:pos:R:3:forces:R:3 energy=-655.34947459 stress="-7.52919 0.39054 -0.18984 0.39054 -6.81644 -0.25954 -0.18984 -0.25954 -8.09656" pbc="T T T"
Zr      15.63886000      16.93310000      16.97737000       0.03205400       0.03261300       0.01349300
Zr      11.19552000      17.46803000      13.29295000       0.00319800      -0.01290700       0.00631900
Zr      15.10746000      12.30692000      16.82342000       0.03937900       0.01787000       0.02048800
Zr      11.30441000      12.59881000      13.33133000       0.00490400       0.01044400       0.01400200
Zr      19.31048000      17.44126000      13.33043000      -0.00372500       0.02874600      -0.05406900
Zr      19.28885000      11.98586000      13.50781000       0.03140700       0.00517200       0.02751800
Zr      11.75295000      17.17203000      17.37257000      -0.02496700      -0.00814400       0.01464700
Zr      10.54109000      12.85663000      16.46245000       0.01864400      -0.02560200      -0.01833200
Zr      18.70841000      17.80410000      16.60796000      -0.01027000       0.02122900       0.01358900
Zr      15.16791000      17.12993000      12.84083000      -0.02516800       0.00292500       0.00779200
Zr      18.52499000      12.24243000      16.68006000      -0.00441800      -0.00793900      -0.00738100
Zr      14.66284000      12.70171000      12.53924000      -0.01161500      -0.01823000      -0.02188800
Zr      12.56426000      14.07739000      18.49412000       0.01554900      -0.02881200       0.01658900
Zr       9.59406000      15.69051000      15.45843000      -0.00954600      -0.00190600      -0.00598200
Zr      16.20608000      19.55630000      14.91676000       0.00383300       0.03308300       0.00758900
Zr      16.86038000      14.50597000      14.99490000       0.00509300      -0.00651000       0.02183800
Zr      12.40167000      14.89661000      11.59109000       0.01503500      -0.00597500       0.00858400
Zr      16.50556000      10.55863000      14.15729000       0.01190900       0.02514300       0.01993900
Zr      13.13638000      19.78596000      15.38845000      -0.01671800       0.00024900       0.01733300
Zr      18.13926000      14.99756000      18.01546000       0.00168500       0.00113400      -0.01540800
Zr      13.43976000      15.35749000      15.03837000       0.00568900      -0.03673500       0.00814200
Zr      13.39644000      10.47679000      14.81956000       0.00100700      -0.01583400      -0.01103000
Zr      20.43180000      15.00203000      14.60579000       0.04368500      -0.04821500      -0.04493600
Zr      17.69939000      15.01077000      11.85652000       0.00600200      -0.00940300      -0.00785300
O       13.67248000      16.40230000      16.84752000      -0.01013200       0.01112500      -0.00850800
O        9.37092000      16.91940000      13.87732000       0.00400600       0.00454200       0.00413900
O       13.60586000      10.95767000      16.69894000      -0.03743800      -0.01001900      -0.00387500
O       18.42927000      15.50599000      13.78756000      -0.03891600       0.02204800      -0.02587900
O       18.32853000      10.23965000      13.39947000      -0.00065400      -0.03746300       0.01533600
O       12.29060000      19.10439000      17.05597000       0.01003600      -0.02066400      -0.01118100
O       12.15479000      14.18933000      16.49976000       0.00174900       0.00076100      -0.03585700
O       15.90325000      18.94820000      13.05411000      -0.00124500       0.01398700      -0.03151700
O       19.19622000      14.29555000      16.11703000      -0.02048200       0.03267100       0.02433500
O       16.10846000      14.14204000      13.05007000      -0.00009500       0.00506500       0.01225900
O       14.31301000      13.18854000      18.46274000      -0.00750400      -0.00296500       0.00588500
O       10.43141000      13.97014000      14.49708000      -0.01868600       0.01408800       0.00932700
O       18.28121000      18.86936000      14.62367000      -0.00911000       0.00026600       0.02392600
O       17.65330000      12.60663000      14.54679000      -0.00165200       0.00531000      -0.01018500
O       13.94863000      13.82079000      10.98225000       0.01240900       0.00390100       0.01039400
O       16.31746000      15.99078000      18.51631000       0.01310400       0.01735300      -0.01187300
O       11.60485000      16.48349000      15.18534000       0.00167400      -0.00272300       0.00678900
O       11.15757000      11.39498000      15.06637000       0.00231700      -0.00494000       0.00196700
O       20.03787000      17.03378000      15.44437000       0.02484400      -0.00350600      -0.03594900
O       15.97603000      16.20684000      11.39804000      -0.02162700       0.03971700       0.04093600
O       19.85073000      11.51218000      15.46046000      -0.00465000      -0.00948800       0.02617600
O       15.89364000      11.22498000      12.34233000      -0.02316000       0.00313600      -0.01641600
O       11.11676000      12.75770000      18.38794000      -0.04582600       0.00387000      -0.00211800
O       14.53601000      18.41631000      15.34100000       0.00855200      -0.00019300      -0.00608300
O       18.85896000      13.20033000      18.48722000      -0.01694600       0.01690400       0.00543600
O       14.83492000      14.10423000      15.71463000      -0.00289100      -0.01586400       0.00605300
O       11.00229000      13.52928000      11.58746000      -0.00237400      -0.00394600      -0.01624600
O       14.91844000       9.29272000      14.45530000      -0.00286200      -0.02118600      -0.01939100
O       18.64223000      13.30646000      11.90682000       0.00170100      -0.00051300      -0.01349600
O       12.04172000      15.98239000      18.93965000      -0.00580200       0.01235300       0.01877900
O       14.79699000      20.95658000      15.18450000       0.03450500       0.02402100       0.00870100
O       19.17413000      16.75875000      18.20370000      -0.00289600      -0.00702000      -0.00923000
O       15.49995000      16.22600000      14.64183000       0.00056400      -0.00344900       0.01756300
O       11.32323000      16.64461000      11.49482000       0.01098000       0.00977800      -0.00242400
O       14.85143000      11.91996000      14.63714000       0.01005400      -0.01866900       0.02325500
O       18.63022000      16.82459000      11.60741000       0.01359200       0.01483900       0.02214700
O        9.83454000      16.84845000      17.04455000       0.01670000       0.00306800      -0.02066500
O       17.45956000      16.21436000      16.22150000      -0.02608200      -0.02045400      -0.01229700
O       13.23974000      16.46906000      13.12349000       0.00860200      -0.00371300      -0.00102700
O       16.77018000      11.04728000      16.47673000       0.01143200      -0.00088700       0.00118000
O       12.91950000      11.38123000      12.94648000       0.00399200      -0.00980500       0.00566700
O       20.96523000      16.41844000      13.22943000       0.00208600      -0.01470900      -0.01454000
O        8.97959000      14.03637000      16.54055000      -0.00933300      -0.00844900      -0.00963000
O       16.72128000      18.69644000      16.84591000      -0.00325000      -0.01711500      -0.03513400
O       11.98964000      19.25067000      13.84609000       0.01466900       0.00581300       0.01692000
O       16.87215000      13.65089000      16.90510000      -0.00604600       0.00130300      -0.01046100
O       12.89640000      13.95287000      13.47233000       0.00384000       0.00630000       0.00067100
O       20.85677000      13.38126000      13.71597000      -0.02439200       0.01312700       0.02516000
