72
Lattice="30.0 0.0 0.0 0.0 30.0 0.0 0.0 0.0 30.0" Properties=species:S:1:pos:R:3:forces:R:3 energy=-655.34961719 stress="-7.51343 0.41814 -0.14215 0.41814 -6.78119 -0.32053 -0.14215 -0.32053 -8.07868" pbc="T T T"
Zr      15.63912000      16.93375000      16.97734000       0.03257000       0.04255200       0.01187800
Zr      11.19586000      17.46792000      13.29310000       0.00480900      -0.01568800      -0.00362100
Zr      15.10747000      12.30571000      16.82351000       0.03791700       0.03551700       0.03214200
Zr      11.30443000      12.59869000      13.33137000       0.00656700       0.01016400       0.01575000
Zr      19.31126000      17.44132000      13.32971000      -0.01094400       0.02986700      -0.07081700
Zr      19.28874000      11.98564000      13.50882000       0.04855500       0.00563700       0.01800400
Zr      11.75250000      17.17107000      17.37202000      -0.02963900      -0.00464400       0.00799500
Zr      10.54033000      12.85713000      16.46269000       0.02005300      -0.04362800      -0.02620900
Zr      18.70932000      17.80366000      16.60668000      -0.03299400       0.04098800       0.03098400
Zr      15.16726000      17.13169000      12.84263000      -0.02355300       0.00192400       0.00124800
Zr      18.52448000      12.24287000      16.68087000       0.00194100      -0.01767000      -0.02167200
Zr      14.66344000      12.70225000      12.53993000      -0.02060100      -0.01684000      -0.03204000
Zr      12.56317000      14.07605000      18.49463000       0.03516800      -0.03283900       0.02114300
Zr       9.59370000      15.69049000      15.45773000      -0.00854100       0.00322000       0.00633200
Zr      16.20656000      19.55734000      14.91687000       0.00377200       0.03582700       0.01636500
Zr      16.86020000      14.50572000      14.99530000       0.01489500      -0.01063900       0.02091900
Zr      12.40178000      14.89684000      11.59150000       0.01571000      -0.01210800       0.00690600
Zr      16.50507000      10.55825000      14.15606000       0.02968600       0.02459100       0.02960600
Zr      13.13648000      19.78613000      15.38825000      -0.01401300      -0.00313900       0.02049700
Zr      18.13899000      14.99825000      18.01532000       0.00664000      -0.00276800      -0.01103100
Zr      13.43994000      15.35655000      15.03860000       0.00442800      -0.03161300       0.01357900
Zr      13.39629000      10.47665000      14.81922000      -0.00179500      -0.02019700      -0.01234200
Zr      20.43097000      15.00253000      14.60507000       0.05985800      -0.09146000      -0.06078700
Zr      17.69963000      15.01095000      11.85683000       0.01009500      -0.01108200      -0.01214300
O       13.67293000      16.40289000      16.84713000      -0.01445500       0.00564400      -0.01043200
O        9.37128000      16.91891000      13.87645000       0.00110600       0.00694100       0.00223900
O       13.60585000      10.95729000      16.69876000      -0.04033300      -0.01387000      -0.00606100
O       18.42922000      15.50684000      13.78741000      -0.04075300       0.02288700      -0.02570300
O       18.32855000      10.23951000      13.39910000      -0.00537000      -0.04058500       0.01553900
O       12.28992000      19.10350000      17.05513000       0.01359200      -0.01870900      -0.01385500
O       12.15470000      14.18780000      16.50031000       0.00893600       0.01046400      -0.04141600
O       15.90232000      18.95014000      13.05442000       0.00104200       0.01444000      -0.03460100
O       19.19483000      14.29568000      16.11553000      -0.02222100       0.03322900       0.03134300
O       16.10902000      14.14069000      13.05064000       0.00085900       0.00994100       0.01036900
O       14.31258000      13.18764000      18.46345000      -0.00828600      -0.00464100      -0.00377800
O       10.43158000      13.97013000      14.49726000      -0.02153300       0.01663200       0.01017700
O       18.28147000      18.86901000      14.62276000      -0.00895400       0.00045200       0.02299600
O       17.65372000      12.60643000      14.54664000      -0.01807000       0.01104700       0.00199300
O       13.94851000      13.82128000      10.98241000       0.01833100       0.00000300       0.01449500
O       16.31803000      15.99275000      18.51662000       0.01353300       0.01224900      -0.00847800
O       11.60448000      16.48273000      15.18541000       0.00332700      -0.00398300       0.00949900
O       11.15710000      11.39498000      15.06622000       0.00321200      -0.00384900       0.00474600
O       20.03828000      17.03393000      15.44333000       0.03685300      -0.00958400      -0.04103900
O       15.97628000      16.20753000      11.40038000      -0.02899100       0.04637600       0.05181600
O       19.85018000      11.51165000      15.46100000      -0.00862600      -0.00634100       0.03687100
O       15.89316000      11.22465000      12.34243000      -0.02180800       0.00260700      -0.02610800
O       11.11548000      12.75719000      18.38833000      -0.05147900      -0.00033300      -0.00300200
O       14.53683000      18.41667000      15.34089000       0.00567600       0.00112900      -0.01016000
O       18.85987000      13.20102000      18.48687000      -0.01890500       0.02244700       0.00730200
O       14.83524000      14.10337000      15.71421000      -0.00629700      -0.01732000       0.00795700
O       11.00230000      13.52936000      11.58793000      -0.00346000      -0.00284800      -0.01945700
O       14.91869000       9.29276000      14.45480000      -0.01118400      -0.02626400      -0.01822700
O       18.64300000      13.30688000      11.90756000      -0.00414200       0.00471000      -0.01562300
O       12.04070000      15.98075000      18.93899000      -0.00593900       0.02062300       0.01818100
O       14.79703000      20.95725000      15.18560000       0.03262100       0.02099500       0.00714300
O       19.17477000      16.75890000      18.20278000      -0.00074600      -0.00926600      -0.00802800
O       15.49989000      16.22530000      14.64179000       0.00188800      -0.00037400       0.02081800
O       11.32405000      16.64457000      11.49433000       0.00823100       0.01855200       0.00554000
O       14.85155000      11.91953000      14.63682000       0.00887500      -0.01868800       0.02959000
O       18.63117000      16.82421000      11.60627000       0.01692600       0.01639900       0.03091400
O        9.83354000      16.84921000      17.04415000       0.02303200      -0.00379000      -0.02948000
O       17.45980000      16.21478000      16.22179000      -0.03107800      -0.02524800      -0.01998600
O       13.23953000      16.46888000      13.12450000       0.00885000       0.00078700      -0.00210300
O       16.77027000      11.04741000      16.47763000       0.00868700       0.00029300       0.00231300
O       12.91969000      11.38136000      12.94653000       0.00197500      -0.01018200       0.00736000
O       20.96585000      16.41814000      13.22890000       0.00002100      -0.01266100      -0.01536700
O        8.97937000      14.03683000      16.54059000      -0.01517800      -0.00528400      -0.00931000
O       16.72181000      18.69753000      16.84578000      -0.00082000      -0.02544400      -0.03920900
O       11.98972000      19.25077000      13.84597000       0.01565400       0.00450900       0.01638900
O       16.87155000      13.65156000      16.90620000      -0.00474400      -0.00151800      -0.01363900
O       12.89641000      13.95319000      13.47244000       0.00464700      -0.00065200       0.00292900
O       20.85769000      13.38024000      13.71568000      -0.03508900       0.04210500       0.04385600
