72
Lattice="30.0 0.0 0.0 0.0 30.0 0.0 0.0 0.0 30.0" Properties=species:S:1:pos:R:3:forces:R:3 energy=-655.35503 stress="-7.85321 0.29171 -0.07935 0.29171 -6.90607 -0.06125 -0.07935 -0.06125 -8.15913" pbc="T T T"
Zr      15.64171000      16.94310000      16.97698000      -0.00186600      -0.02075700       0.01182000
Zr      11.19973000      17.46565000      13.29289000      -0.00092300       0.01004000       0.01995300
Zr      15.10894000      12.30162000      16.82748000      -0.02050500       0.00658400      -0.01607800
Zr      11.30528000      12.59964000      13.33336000       0.00142700       0.00014000      -0.00214600
Zr      19.31626000      17.44524000      13.31940000      -0.00715400      -0.00604900       0.00864300
Zr      19.29231000      11.98239000      13.51668000      -0.01220900      -0.02894700      -0.01233700
Zr      11.74739000      17.16394000      17.36928000       0.01393000      -0.00436900      -0.00163100
Zr      10.53666000      12.85498000      16.46114000      -0.01291000      -0.00639200      -0.01279000
Zr      18.71306000      17.80444000      16.59907000      -0.01834900      -0.00790200      -0.01011700
Zr      15.16046000      17.14427000      12.85544000       0.00320100       0.03237600       0.02765100
Zr      18.52162000      12.24450000      16.68424000      -0.00667500       0.01514500       0.01220200
Zr      14.66433000      12.70423000      12.54049000      -0.00529500      -0.03911200       0.00587200
Zr      12.55826000      14.06439000      18.49987000      -0.02039600      -0.01088200      -0.02563500
Zr       9.59001000      15.69071000      15.45487000      -0.01797000      -0.00366000      -0.01493600
Zr      16.20922000      19.56830000      14.91762000       0.00356000       0.00894400      -0.03140500
Zr      16.86147000      14.50479000      14.99886000       0.01511100      -0.00166700      -0.00343600
Zr      12.40372000      14.89732000      11.59452000      -0.00538100      -0.00890300      -0.01249000
Zr      16.50503000      10.55775000      14.15150000      -0.02354900       0.00428400       0.02295700
Zr      13.13753000      19.78636000      15.38965000       0.00514200       0.00599700      -0.00285900
Zr      18.13896000      15.00349000      18.01347000       0.00251700      -0.00503600      -0.00003500
Zr      13.44138000      15.34894000      15.04327000       0.00484200       0.00461700       0.03372800
Zr      13.39605000      10.47311000      14.81684000       0.02697400      -0.01088100       0.01013200
Zr      20.43082000      15.00076000      14.59493000      -0.01532700       0.00555000       0.01212900
Zr      17.70089000      15.01182000      11.85845000      -0.01740600      -0.02168300       0.00753900
O       13.67458000      16.40694000      16.84314000      -0.01030800      -0.00096100       0.00883800
O        9.37333000      16.91678000      13.87036000       0.00514900       0.00948700       0.00093300
O       13.60196000      10.95380000      16.69649000      -0.00697600       0.00732200       0.00708700
O       18.42446000      15.51467000      13.78320000       0.01021100       0.01433800      -0.00635500
O       18.32906000      10.23563000      13.39872000       0.01956800       0.00698000       0.01677500
O       12.28705000      19.09573000      17.04808000       0.01593000      -0.00472200       0.01989600
O       12.15622000      14.17901000      16.50047000       0.02622800       0.00639200       0.02972500
O       15.89667000      18.96554000      13.05360000       0.01531600       0.01807200       0.00625900
O       19.18336000      14.29969000      16.10861000       0.02172200       0.01354600      -0.01461700
O       16.11300000      14.13300000      13.05471000      -0.00243500       0.02373000      -0.02613700
O       14.30956000      13.18025000      18.46734000      -0.01750700      -0.00182400       0.00796600
O       10.43037000      13.97130000      14.49883000      -0.00731900      -0.01120900      -0.00879000
O       18.28221000      18.86694000      14.61905000       0.00543900       0.00980600      -0.00791100
O       17.65417000      12.60554000      14.54698000      -0.00144700      -0.02497800       0.02147100
O       13.95084000      13.82418000      10.98505000       0.02243000       0.00597000      -0.01040100
O       16.32372000      16.00668000      18.51890000      -0.01059700       0.00818700      -0.02097400
O       11.60241000      16.47680000      15.18697000       0.00646700      -0.01008800       0.01189000
O       11.15432000      11.39436000      15.06556000      -0.00497100      -0.00504700      -0.00045000
O       20.04346000      17.03477000      15.43349000      -0.00443400       0.00924400       0.00230000
O       15.97514000      16.21725000      11.42208000      -0.00568200       0.01953500       0.00948300
O       19.84633000      11.50736000      15.46878000       0.03181200      -0.00511800      -0.00457500
O       15.88816000      11.22205000      12.33924000       0.00930500      -0.00667800      -0.01451700
O       11.10146000      12.75386000      18.39037000       0.00452100       0.01283500      -0.01724300
O       14.54269000      18.42050000      15.33837000       0.00972100       0.00373000      -0.02104100
O       18.86346000      13.20804000      18.48534000      -0.01512400       0.00461200       0.01036800
O       14.83660000      14.09442000      15.71316000      -0.02980000       0.00266600       0.00994600
O       11.00244000      13.52961000      11.58922000       0.01674300       0.01049200      -0.01024100
O       14.91889000       9.28989000      14.44927000       0.00309600      -0.01641500      -0.00832500
O       18.64793000      13.30985000      11.91125000      -0.00991100       0.00905400       0.00943000
O       12.03358000      15.97135000      18.93630000       0.01498200      -0.00332100      -0.00364400
O       14.80021000      20.96382000      15.19415000      -0.01245700       0.00615500       0.01253100
O       19.17933000      16.75897000      18.19567000       0.01619700       0.02505400      -0.01867500
O       15.49956000      16.22052000      14.64449000      -0.01971800       0.02025200       0.02263400
O       11.33052000      16.64712000      11.49261000       0.00695300       0.01351700       0.00186200
O       14.85361000      11.91442000      14.63876000       0.00844200      -0.01768000       0.00979100
O       18.63904000      16.82299000      11.60012000       0.00098200       0.01186600      -0.01162700
O        9.82876000      16.85337000      17.03744000       0.00586400      -0.00141000       0.00339700
O       17.45799000      16.21546000      16.22115000      -0.00826700       0.03619900      -0.01200600
O       13.23798000      16.46775000      13.13102000      -0.01666600      -0.00320100      -0.00246500
O       16.77197000      11.04827000      16.48429000       0.00101800      -0.00741800       0.00314000
O       12.92061000      11.38136000      12.94773000      -0.01763500       0.00298600       0.00534600
O       20.96949000      16.41369000      13.22277000      -0.01959600      -0.01835700      -0.03517800
O        8.97618000      14.03899000      16.53951000       0.00353000      -0.02674500      -0.01294200
O       16.72642000      18.70217000      16.84074000       0.01785900       0.00090600      -0.01659500
O       11.99206000      19.25131000      13.84694000       0.02332500      -0.01240000       0.01655400
O       16.86702000      13.65441000      16.91236000       0.01089100      -0.02337400      -0.01254500
O       12.89682000      13.95358000      13.47341000       0.00305900      -0.02668900      -0.00430600
O       20.86070000      13.37529000      13.71777000      -0.00669800      -0.00273400       0.02720300
