72
Lattice="30.0 0.0 0.0 0.0 30.0 0.0 0.0 0.0 30.0" Properties=species:S:1:pos:R:3:forces:R:3 energy=-655.35731078 stress="-7.85935 0.20919 -0.03965 0.20919 -6.93612 -0.01793 -0.03965 -0.01793 -8.20724" pbc="T T T"
Zr      15.64215000      16.94737000      16.97673000       0.00496900       0.01816100      -0.01768600
Zr      11.20232000      17.46517000      13.29393000       0.00815700      -0.00632200       0.00501800
Zr      15.10738000      12.30028000      16.82848000      -0.00136100      -0.00647900       0.01181500
Zr      11.30599000      12.60049000      13.33438000      -0.00514900      -0.01719200      -0.02079600
Zr      19.31892000      17.44750000      13.31437000      -0.00264700      -0.03323300      -0.02957700
Zr      19.29340000      11.97750000      13.52008000       0.00915600       0.03107500       0.02245200
Zr      11.74587000      17.15935000      17.36789000       0.00084500       0.01385600      -0.00069800
Zr      10.53337000      12.85246000      16.45863000       0.01030900       0.03123200       0.00153100
Zr      18.71378000      17.80422000      16.59349000      -0.01122900       0.02880000      -0.01091400
Zr      15.15673000      17.15397000      12.86563000      -0.01837100      -0.02173200       0.00250100
Zr      18.51964000      12.24687000      16.68719000       0.04533500      -0.03446800      -0.03144400
Zr      14.66379000      12.70206000      12.54070000      -0.00483200       0.01122400      -0.00783400
Zr      12.55379000      14.05701000      18.50095000      -0.01208700       0.02232400       0.01151000
Zr       9.58624000      15.69037000      15.45247000      -0.00051400       0.01366600      -0.01741500
Zr      16.21054000      19.57597000      14.91496000       0.04554700       0.00986000       0.03210300
Zr      16.86397000      14.50487000      15.00019000      -0.00880900      -0.01219900      -0.03610300
Zr      12.40440000      14.89676000      11.59529000       0.03833500       0.03352300      -0.00993300
Zr      16.50339000      10.55773000      14.15120000       0.02931700      -0.02029400      -0.01615300
Zr      13.13910000      19.78679000      15.39046000      -0.00209100       0.01743700       0.01692600
Zr      18.13965000      15.00645000      18.01243000      -0.00475700       0.03551400      -0.00328300
Zr      13.44251000      15.34587000      15.04968000      -0.01953900       0.00807100      -0.03969200
Zr      13.39849000      10.46979000      14.81679000      -0.03689200      -0.00157600      -0.00470500
Zr      20.42949000      15.00127000      14.59044000      -0.00037600       0.00455600      -0.00919600
Zr      17.69971000      15.01090000      11.86018000      -0.00287000       0.03325900      -0.01608300
O       13.67469000      16.40903000      16.84137000       0.01198500       0.00695300       0.02773200
O        9.37471000      16.91660000      13.86673000      -0.00205900      -0.00146600       0.01637800
O       13.59903000      10.95250000      16.69549000       0.00356400       0.00184100       0.01625100
O       18.42218000      15.52039000      13.77983000       0.01084900      -0.01181600       0.03563000
O       18.33124000      10.23424000      13.40019000      -0.03430100      -0.01669100       0.01924100
O       12.28690000      19.09080000      17.04548000       0.02296900       0.00327800       0.02516900
O       12.15980000      14.17470000      16.50298000      -0.01190100      -0.01573500       0.00503100
O       15.89485000      18.97635000      13.05368000       0.01576800       0.02151100      -0.01503800
O       19.17842000      14.30317000      16.10366000      -0.00524900      -0.00737300       0.00795200
O       16.11515000      14.13069000      13.05464000      -0.01348900       0.00228400       0.00845800
O       14.30672000      13.17547000      18.46995000      -0.00959800      -0.00853900      -0.00146600
O       10.42890000      13.97099000      14.49878000      -0.00144100      -0.00608000       0.00212600
O       18.28295000      18.86664000      14.61643000       0.00792000       0.02002600      -0.03203000
O       17.65398000      12.60281000      14.54937000      -0.00319000      -0.01468600       0.01539100
O       13.95464000      13.82615000      10.98584000       0.00645700      -0.00341500       0.00258500
O       16.32644000      16.01517000      18.51893000      -0.00763200      -0.01657400      -0.01056700
O       11.60183000      16.47236000      15.18891000      -0.01859400      -0.01247000       0.00993900
O       11.15237000      11.39349000      15.06508000      -0.00756400      -0.00594000      -0.00440400
O       20.04573000      17.03627000      15.42833000       0.00899400      -0.00297800      -0.01487000
O       15.97388000      16.22483000      11.43600000      -0.01491800       0.03131200       0.01681700
O       19.84692000      11.50440000      15.47332000      -0.01203900       0.02419900       0.00316500
O       15.88610000      11.21974000      12.33553000       0.02764700      -0.02168600       0.03359600
O       11.09335000      12.75303000      18.39000000      -0.00649400      -0.01712800      -0.03004100
O       14.54675000      18.42354000      15.33486000       0.00901100      -0.00783800      -0.02707800
O       18.86394000      13.21265000      18.48533000      -0.00463100       0.00275300       0.01917500
O       14.83490000      14.08873000      15.71382000       0.00598900       0.00908600       0.00222400
O       11.00402000      13.53055000      11.58906000      -0.00181400      -0.00736100      -0.00664600
O       14.91903000       9.28656000      14.44516000       0.02651300      -0.01229600       0.00292400
O       18.65005000      13.31214000      11.91413000      -0.00979000      -0.01191600       0.02472700
O       12.03081000      15.96558000      18.93454000       0.01892500      -0.00783100      -0.01157200
O       14.80108000      20.96820000      15.20028000      -0.03239000       0.00481500       0.00343800
O       19.18334000      16.76096000      18.19001000       0.00730200      -0.00699400       0.00060000
O       15.49777000      16.21941000      14.64832000      -0.01521800       0.00061100       0.03189000
O       11.33490000      16.65019000      11.49222000       0.00238500      -0.00201000       0.00158000
O       14.85567000      11.90979000      14.64129000       0.00837400      -0.00813600      -0.03099400
O       18.64363000      16.82318000      11.59516000      -0.01895200      -0.00436200       0.00807800
O        9.82648000      16.85537000      17.03322000      -0.00603400      -0.01579300       0.00813000
O       17.45599000      16.21878000      16.21946000       0.00367300      -0.00421500      -0.00908500
O       13.23534000      16.46683000      13.13451000       0.01063900      -0.00479800       0.01775000
O       16.77318000      11.04816000      16.48852000      -0.02114300      -0.00739600      -0.00116300
O       12.91949000      11.38160000      12.94894000       0.01012400      -0.02400100       0.01123000
O       20.96979000      16.40907000      13.21585000      -0.02878100      -0.01005500      -0.01704800
O        8.97449000      14.03790000      16.53763000      -0.00758200      -0.02208300      -0.01413100
O       16.73098000      18.70467000      16.83618000      -0.01605100       0.00790100      -0.00400700
O       11.99542000      19.25041000      13.84894000       0.01701500      -0.00558500       0.00027000
O       16.86526000      13.65352000      16.91489000       0.01465600       0.01989600      -0.01812100
O       12.89727000      13.95092000      13.47358000       0.01036200      -0.00268800       0.00652000
O       20.86182000      13.37146000      13.72120000      -0.01071200       0.01240800       0.03192000
