72
Lattice="30.0 0.0 0.0 0.0 30.0 0.0 0.0 0.0 30.0" Properties=species:S:1:pos:R:3:forces:R:3 energy=-655.35899423 stress="-7.94962 0.17457 -0.04095 0.17457 -7.17262 -0.04403 -0.04095 -0.04403 -8.18336" pbc="T T T"
Zr      15.64279000      16.94978000      16.97605000      -0.01908600       0.01450000      -0.03713400
Zr      11.20376000      17.46483000      13.29502000       0.01434500      -0.00642800      -0.00438500
Zr      15.10651000      12.29934000      16.82916000       0.01361500      -0.00012000       0.01784800
Zr      11.30612000      12.60002000      13.33386000      -0.01688300      -0.00790800      -0.01395900
Zr      19.31989000      17.44693000      13.31067000       0.00325600       0.00024300       0.01424600
Zr      19.29414000      11.97647000      13.52261000      -0.00639600       0.02306100       0.00901400
Zr      11.74533000      17.15773000      17.36717000      -0.00630100       0.00823100       0.00439800
Zr      10.53212000      12.85274000      16.45738000       0.01495800      -0.00016900      -0.00452600
Zr      18.71328000      17.80525000      16.59046000       0.03013400       0.00566800      -0.01786900
Zr      15.15423000      17.15795000      12.87099000       0.00068500       0.02593800       0.02511000
Zr      18.52057000      12.24666000      16.68740000      -0.01037200      -0.00636600       0.01598100
Zr      14.66340000      12.70099000      12.54069000       0.01476400      -0.00708500       0.00332300
Zr      12.55095000      14.05432000      18.50165000       0.01093800       0.00862200       0.02535600
Zr       9.58421000      15.69072000      15.45018000       0.00579400      -0.00823400       0.03391200
Zr      16.21332000      19.58015000      14.91484000      -0.00181200       0.00959700       0.01052900
Zr      16.86486000      14.50414000      14.99929000      -0.02377600      -0.01460300       0.00845500
Zr      12.40640000      14.89785000      11.59512000       0.01802600       0.00868400       0.00940600
Zr      16.50351000      10.55689000      14.15053000       0.01078900      -0.03833900       0.00498000
Zr      13.13961000      19.78795000      15.39143000       0.03068400      -0.00478600       0.02798400
Zr      18.13965000      15.00927000      18.01178000      -0.00188400      -0.00492100      -0.01132800
Zr      13.44228000      15.34469000      15.05126000      -0.00867500      -0.00889700      -0.02062600
Zr      13.39829000      10.46806000      14.81659000      -0.00651800      -0.00960800       0.01441400
Zr      20.42858000      15.00143000      14.58811000      -0.00407800       0.02764300       0.02641100
Zr      17.69892000      15.01159000      11.86033000       0.00754900       0.02706000      -0.00747600
O       13.67515000      16.41037000      16.84192000       0.01366300       0.00511700       0.01342900
O        9.37540000      16.91651000      13.86578000      -0.00682900       0.01062500       0.00092800
O       13.59773000      10.95204000      16.69589000       0.00331000      -0.00688300      -0.00997300
O       18.42182000      15.52278000      13.77982000      -0.00789500      -0.02543500       0.01259200
O       18.33094000      10.23286000      13.40188000      -0.00183900      -0.00473100       0.01035900
O       12.28800000      19.08854000      17.04565000       0.02390000       0.01305300       0.02216800
O       12.16117000      14.17197000      16.50480000      -0.01477100      -0.00144000      -0.02443200
O       15.89483000      18.98258000      13.05313000       0.00852300      -0.00722900       0.00081100
O       19.17615000      14.30466000      16.10141000      -0.00298900      -0.01888600       0.00899600
O       16.11552000      14.12996000      13.05470000      -0.01237100      -0.00233600       0.00696800
O       14.30464000      13.17289000      18.47130000      -0.00879600      -0.00540800      -0.00589700
O       10.42809000      13.97044000      14.49877000       0.00895700       0.00187500      -0.01228700
O       18.28376000      18.86750000      14.61360000       0.00638800       0.02063600      -0.02697500
O       17.65381000      12.60056000      14.55136000       0.00492700      -0.00440700       0.00076200
O       13.95688000      13.82707000      10.98615000       0.00301900      -0.00231400       0.00164500
O       16.32718000      16.01865000      18.51806000      -0.00241100      -0.02264900       0.00231900
O       11.60079000      16.46961000      15.19040000      -0.02179800      -0.00375900      -0.00266900
O       11.15102000      11.39277000      15.06466000      -0.00178700      -0.00449300      -0.01688100
O       20.04723000      17.03690000      15.42515000      -0.00750800       0.01001700      -0.00274700
O       15.97257000      16.23000000      11.44336000      -0.00190800       0.01070700      -0.00322300
O       19.84703000      11.50400000      15.47546000       0.01281200       0.01097200      -0.01522500
O       15.88645000      11.21765000      12.33523000       0.00914900       0.00737800       0.02386200
O       11.08935000      12.75204000      18.38827000      -0.00691400      -0.02348700      -0.00864200
O       14.54924000      18.42454000      15.33179000       0.00128000       0.01661500      -0.02408500
O       18.86385000      13.21499000      18.48631000      -0.00518300       0.01181100      -0.00357200
O       14.83396000      14.08665000      15.71425000       0.01141600       0.01177400      -0.01019700
O       11.00488000      13.53083000      11.58856000       0.01865500       0.01125200      -0.00727600
O       14.92038000       9.28430000      14.44328000      -0.00343600       0.00659100       0.01531400
O       18.65048000      13.31285000      11.91673000      -0.01681200       0.00409500       0.02789900
O       12.03050000      15.96246000      18.93311000       0.00795600       0.01400700      -0.00641900
O       14.79987000      20.97057000      15.20347000      -0.01766100      -0.00387000       0.00241000
O       19.18578000      16.76195000      18.18710000      -0.00104500       0.00222300      -0.00732300
O       15.49597000      16.21919000      14.65175000      -0.00841100      -0.01164700       0.01445800
O       11.33716000      16.65163000      11.49200000       0.00423600      -0.00254300       0.00970600
O       14.85709000      11.90703000      14.64109000      -0.01144800       0.00401400      -0.03168300
O       18.64499000      16.82326000      11.59313000      -0.04037300      -0.02733700      -0.02223600
O        9.82522000      16.85567000      17.03178000      -0.00870000      -0.02376800      -0.00163100
O       17.45516000      16.22067000      16.21817000       0.01597400      -0.01168700      -0.00922600
O       13.23443000      16.46613000      13.13694000       0.00441000      -0.00744200       0.01362200
O       16.77279000      11.04768000      16.49049000      -0.00977000       0.00057600       0.00080700
O       12.91923000      11.38068000      12.95006000       0.01652100      -0.02568000      -0.00096600
O       20.96845000      16.40632000      13.21144000      -0.01095100      -0.01115900      -0.02183500
O        8.97343000      14.03608000      16.53598000      -0.02597100       0.01010300      -0.01837600
O       16.73256000      18.70629000      16.83368000      -0.01480700       0.02334000       0.00559400
O       11.99806000      19.24962000      13.85009000       0.00102400      -0.01006300      -0.01321400
O       16.86523000      13.65384000      16.91512000       0.01326200       0.02890600      -0.02723200
O       12.89800000      13.94936000      13.47389000       0.01138300       0.00873300      -0.00335800
O       20.86180000      13.37036000      13.72460000       0.00186300      -0.01755200       0.00886500
