72
Lattice="30.0 0.0 0.0 0.0 30.0 0.0 0.0 0.0 30.0" Properties=species:S:1:pos:R:3:forces:R:3 energy=-655.36095368 stress="-8.20461 0.20895 -0.11257 0.20895 -7.52427 -0.09218 -0.11257 -0.09218 -8.41794" pbc="T T T"
Zr      15.64196000      16.95413000      16.97243000       0.03072500      -0.03402500       0.00278600
Zr      11.20681000      17.46391000      13.29623000      -0.02826300      -0.00534000       0.00195600
Zr      15.10610000      12.29788000      16.83146000      -0.00037600      -0.00329300      -0.03625300
Zr      11.30512000      12.59898000      13.33247000       0.02767700       0.00920100      -0.01664000
Zr      19.32148000      17.44682000      13.30704000      -0.03465100      -0.01313700      -0.03823300
Zr      19.29451000      11.97618000      13.52659000      -0.00567500       0.00293200      -0.01482900
Zr      11.74411000      17.15594000      17.36652000      -0.00696900       0.00918100      -0.01049200
Zr      10.53134000      12.85261000      16.45506000      -0.02109600      -0.01453600      -0.02991700
Zr      18.71508000      17.80667000      16.58500000      -0.01404600      -0.01751500       0.03989100
Zr      15.15126000      17.16610000      12.88044000       0.02519000      -0.00502600      -0.00614900
Zr      18.52025000      12.24652000      16.68945000      -0.00938600       0.00438500      -0.00098100
Zr      14.66414000      12.69865000      12.54111000       0.00899900       0.00491700       0.00893500
Zr      12.54815000      14.05081000      18.50448000      -0.03010200      -0.02718700      -0.01810600
Zr       9.58184000      15.69030000      15.45010000      -0.01162300      -0.01147300      -0.02468900
Zr      16.21652000      19.58659000      14.91504000      -0.01379600       0.02330700      -0.02600700
Zr      16.86440000      14.50213000      14.99919000      -0.01701100      -0.00834100      -0.01380300
Zr      12.40985000      14.89946000      11.59573000       0.01331300      -0.01729800       0.01254800
Zr      16.50416000      10.55297000      14.15016000      -0.00976000      -0.00469200       0.00802100
Zr      13.14281000      19.78888000      15.39470000      -0.04322500      -0.00715700      -0.02293600
Zr      18.13977000      15.01233000      18.01006000      -0.01556800       0.01241600      -0.01130400
Zr      13.44163000      15.34212000      15.05246000      -0.01714300      -0.02458100      -0.00942400
Zr      13.39801000      10.46490000      14.81757000       0.01323200       0.00434000      -0.03197800
Zr      20.42700000      15.00394000      14.58724000       0.00515600      -0.07895000       0.00876000
Zr      17.69848000      15.01413000      11.86019000      -0.02478400      -0.02461700       0.00918000
O       13.67668000      16.41254000      16.84331000      -0.01595100       0.00190800      -0.01261400
O        9.37586000      16.91726000      13.86425000       0.01007000       0.00189500       0.01365800
O       13.59610000      10.95080000      16.69539000       0.02060800       0.00563100       0.00850100
O       18.42049000      15.52429000      13.78024000       0.00126400       0.00011700      -0.00775600
O       18.33093000      10.23083000      13.40477000       0.02553800      -0.00600100       0.00050900
O       12.29109000      19.08638000      17.04727000       0.02058200       0.00484600       0.03061700
O       12.16208000      14.16829000      16.50526000      -0.00366600       0.01189600       0.00193200
O       15.89523000      18.99040000      13.05266000       0.01685100       0.00622300       0.02973300
O       19.17282000      14.30537000      16.09884000       0.01954800      -0.01663300       0.00847100
O       16.11526000      14.12870000      13.05521000      -0.00737300      -0.00247900       0.01347400
O       14.30115000      13.16898000      18.47275000       0.00002900      -0.00015500       0.00531200
O       10.42770000      13.96992000      14.49775000       0.02150300      -0.00843100      -0.02223500
O       18.28527000      18.87004000      14.60801000       0.00865600       0.01281300      -0.01024000
O       17.65403000      12.59732000      14.55397000      -0.01093700       0.01203700       0.00753600
O       13.96015000      13.82824000      10.98667000      -0.00358800      -0.00229600       0.00176800
O       16.32815000      16.02199000      18.51721000      -0.01421100      -0.00166700      -0.04705400
O       11.59788000      16.46567000      15.19211000       0.01586100       0.00407400       0.00934900
O       11.14912000      11.39150000      15.06278000      -0.00182500      -0.00105200      -0.01029900
O       20.04859000      17.03865000      15.42073000       0.02405300       0.00470700      -0.02903700
O       15.97083000      16.23760000      11.45313000      -0.01762800       0.01953200       0.02765300
O       19.84842000      11.50394000      15.47717000      -0.00929900       0.01284500       0.02693800
O       15.88723000      11.21567000      12.33617000       0.01953600      -0.00229700       0.00480700
O       11.08327000      12.74904000      18.38563000       0.03319400       0.00502700       0.01938100
O       14.55268000      18.42742000      15.32598000       0.02339600      -0.00835900      -0.01267400
O       18.86339000      13.21919000      18.48706000      -0.00252300      -0.00617000      -0.01263400
O       14.83346000      14.08451000      15.71399000       0.00827700      -0.01825400       0.00511500
O       11.00763000      13.53225000      11.58739000       0.02316400       0.01232600      -0.00303400
O       14.92154000       9.28186000      14.44181000      -0.02895700      -0.00497400       0.03115200
O       18.64989000      13.31439000      11.92221000      -0.01728600       0.02123200       0.01897600
O       12.03041000      15.95934000      18.93078000      -0.00165400       0.01863600       0.00810200
O       14.79730000      20.97350000      15.20806000       0.02372900       0.00356200       0.00346300
O       19.18897000      16.76364000      18.18244000      -0.00473100       0.02002200      -0.02654500
O       15.49304000      16.21794000      14.65720000      -0.00055800       0.00187500      -0.00207700
O       11.34064000      16.65347000      11.49245000       0.00847200      -0.00718300      -0.00008700
O       14.85802000      11.90362000      14.63876000      -0.02009300       0.00790400       0.02561000
O       18.64397000      16.82123000      11.58835000      -0.00590600       0.00767300       0.01691300
O        9.82283000      16.85446000      17.02947000       0.00879200       0.00320300       0.04379400
O       17.45523000      16.22245000      16.21577000       0.02216000       0.01475900      -0.00347000
O       13.23334000      16.46464000      13.14115000       0.01598600       0.00351000       0.01363200
O       16.77181000      11.04717000      16.49334000      -0.00160300       0.01066100       0.01932900
O       12.92003000      11.37772000      12.95136000      -0.01047200      -0.00855400      -0.00678500
O       20.96617000      16.40172000      13.20377000      -0.00285300       0.00689300      -0.00474700
O        8.96999000      14.03471000      16.53243000      -0.01035300       0.00672300      -0.01249500
O       16.73386000      18.71029000      16.83070000      -0.00532000       0.02694800      -0.00547600
O       12.00156000      19.24778000      13.85062000       0.02401500       0.01073200       0.02020300
O       16.86601000      13.65628000      16.91353000      -0.01411900      -0.01152500       0.00728200
O       12.89976000      13.94794000      13.47395000      -0.00545500      -0.00062600      -0.00319600
O       20.86212000      13.36719000      13.72954000       0.00026000       0.05293900       0.02890800
