72
Lattice="30.0 0.0 0.0 0.0 30.0 0.0 0.0 0.0 30.0" Properties=species:S:1:pos:R:3:forces:R:3 energy=-655.36841539 stress="-7.98472 -0.08948 0.06117 -0.08948 -7.28401 0.0346 0.06117 0.0346 -7.63132" pbc="T T T"
Zr      15.64504000      16.96173000      16.94783000      -0.00198200       0.01524000       0.00437400
Zr      11.20885000      17.46246000      13.30032000       0.00613000       0.00247900       0.00014400
Zr      15.10119000      12.29052000      16.83294000       0.00344300       0.00302000       0.00121500
Zr      11.31100000      12.59916000      13.32133000       0.00420000       0.00374300      -0.00472600
Zr      19.31406000      17.44380000      13.29013000      -0.00095400       0.00742500       0.00723500
Zr      19.29381000      11.97540000      13.54021000       0.00113000      -0.00860000      -0.00003600
Zr      11.74543000      17.15304000      17.36790000      -0.00870500      -0.00650500      -0.01591300
Zr      10.52266000      12.84661000      16.44232000       0.01680100      -0.01549000      -0.03013400
Zr      18.72037000      17.81335000      16.56902000       0.01366400      -0.01962200       0.03433300
Zr      15.14568000      17.19378000      12.91433000      -0.02892800       0.01137900      -0.00043600
Zr      18.51260000      12.24980000      16.70069000      -0.00232200      -0.00139600      -0.00170300
Zr      14.66877000      12.68812000      12.54424000      -0.01248100       0.02490400      -0.02768700
Zr      12.53591000      14.03757000      18.50388000      -0.01585000      -0.02385300      -0.01323600
Zr       9.58155000      15.68947000      15.44803000       0.00038200       0.00403000       0.01792400
Zr      16.22937000      19.61383000      14.91275000       0.00197600       0.00821600      -0.01512900
Zr      16.86133000      14.49761000      15.00108000      -0.00150800       0.00620700       0.00122600
Zr      12.43119000      14.90329000      11.60004000       0.00440000      -0.00565300       0.00577300
Zr      16.50564000      10.54560000      14.15740000      -0.00032200      -0.01269700       0.03172700
Zr      13.15016000      19.78763000      15.40111000      -0.00205300      -0.00798100       0.00315300
Zr      18.13902000      15.02221000      18.00195000       0.00284100       0.04437300       0.01006700
Zr      13.43560000      15.32843000      15.05722000      -0.02568400       0.01591400      -0.00048700
Zr      13.39596000      10.46026000      14.81478000      -0.00791300      -0.01111100      -0.00045900
Zr      20.42189000      15.00458000      14.58325000      -0.01132600       0.02662100       0.00960100
Zr      17.68253000      15.01174000      11.86508000      -0.02554300       0.03021400      -0.00554100
O       13.67580000      16.42015000      16.83122000       0.01094500      -0.00488000       0.00138700
O        9.37630000      16.92024000      13.86635000      -0.00321700      -0.00001000      -0.00185700
O       13.59275000      10.94360000      16.69426000      -0.00357400       0.01034400      -0.00219100
O       18.41058000      15.52923000      13.77745000       0.00744500      -0.01854200       0.00599700
O       18.33702000      10.22698000      13.41924000       0.02281300      -0.00772700      -0.00403100
O       12.30983000      19.08174000      17.05808000       0.00407800       0.00974900      -0.00612700
O       12.15471000      14.16405000      16.50352000       0.00342000       0.00457300       0.02187500
O       15.90778000      19.01621000      13.05469000       0.01753300       0.01891200       0.00392900
O       19.17004000      14.30586000      16.09729000      -0.00319700      -0.01139600      -0.01345100
O       16.10909000      14.12294000      13.06235000       0.00019000      -0.02551800       0.00071000
O       14.28957000      13.16000000      18.47379000       0.00088000      -0.00131700       0.00049000
O       10.43618000      13.97142000      14.48801000      -0.00365500       0.00708800      -0.00111600
O       18.29228000      18.88053000      14.59640000       0.01161300       0.00186800      -0.01513400
O       17.64612000      12.59091000      14.56114000       0.00402100       0.00191700       0.01674700
O       13.97470000      13.82293000      10.98884000       0.01590300      -0.01410300      -0.00171000
O       16.32431000      16.02727000      18.49336000       0.00091000      -0.00039300       0.00857000
O       11.59378000      16.46532000      15.19683000       0.01423700      -0.00603200      -0.00173500
O       11.14458000      11.38945000      15.05021000       0.00231400      -0.00188600       0.00290100
O       20.05811000      17.04927000      15.40419000       0.00271800      -0.01907500      -0.00389300
O       15.95139000      16.25473000      11.49071000      -0.00324000      -0.00660400       0.00866800
O       19.84305000      11.50852000      15.49121000       0.01152200       0.00157800       0.00496000
O       15.89937000      11.20803000      12.34495000       0.00080200      -0.01070500      -0.01975700
O       11.07195000      12.73572000      18.37435000       0.00883600       0.00812000       0.00677200
O       14.57087000      18.43378000      15.30408000      -0.00256300      -0.00220900      -0.01335300
O       18.86024000      13.22935000      18.48918000       0.00008900      -0.00191500       0.00318500
O       14.82732000      14.07092000      15.71260000       0.01877400      -0.00165200       0.01181200
O       11.02567000      13.54032000      11.57956000       0.00708900       0.00992400      -0.01083600
O       14.91910000       9.27564000      14.45392000       0.00362400      -0.01940400      -0.00962300
O       18.64364000      13.31974000      11.94196000       0.00228500      -0.00905700      -0.00140100
O       12.02941000      15.95012000      18.92646000       0.01289100       0.00029600       0.01242600
O       14.79537000      20.98456000      15.22233000       0.00888800       0.00500100      -0.00075000
O       19.19220000      16.77305000      18.16895000      -0.00947700       0.00235100      -0.00112200
O       15.49228000      16.21089000      14.67004000      -0.00940500      -0.01358600       0.02983500
O       11.35433000      16.65340000      11.49723000      -0.00546900       0.01441200      -0.00026800
O       14.85641000      11.89370000      14.64041000      -0.00319900       0.01837000       0.00412500
O       18.63011000      16.81447000      11.57580000      -0.01341700      -0.00592700       0.00268300
O        9.82225000      16.84598000      17.03673000       0.00691100      -0.00581000      -0.00626900
O       17.46467000      16.22982000      16.20316000      -0.00628600      -0.01379900      -0.00785000
O       13.23382000      16.46309000      13.15948000      -0.00147100       0.00565300      -0.00250400
O       16.76841000      11.04532000      16.50777000      -0.00727600       0.01313000       0.00704300
O       12.92119000      11.37064000      12.94296000       0.01398100      -0.01375100       0.01168100
O       20.95394000      16.39291000      13.18552000      -0.00471600      -0.00053600      -0.01361900
O        8.96005000      14.02699000      16.51241000      -0.00816200       0.00647000      -0.00163000
O       16.74011000      18.72166000      16.81655000      -0.00863400       0.00154800       0.00452900
O       12.01006000      19.24504000      13.85956000      -0.00556300       0.00210400      -0.00965400
O       16.86050000      13.66055000      16.91787000      -0.01514500      -0.02093100      -0.01739100
O       12.90949000      13.93858000      13.47226000       0.00489700       0.00702200      -0.01232800
O       20.86650000      13.36545000      13.74111000      -0.01134000      -0.00452100      -0.00201200
