72
Lattice="30.0 0.0 0.0 0.0 30.0 0.0 0.0 0.0 30.0" Properties=species:S:1:pos:R:3:forces:R:3 energy=-655.37005135 stress="-8.03291 0.02823 0.04194 0.02823 -7.44031 0.09946 0.04194 0.09946 -7.75876" pbc="T T T"
Zr      15.64534000      16.96359000      16.94068000       0.00684100       0.00349500       0.02369800
Zr      11.20860000      17.46331000      13.30115000      -0.00360300      -0.01071200      -0.00549000
Zr      15.09947000      12.28881000      16.83345000      -0.00177300       0.01248600      -0.00220300
Zr      11.31345000      12.60009000      13.31766000       0.00673700       0.00334700       0.00052100
Zr      19.31113000      17.44366000      13.28800000      -0.00490400      -0.00755500      -0.02097100
Zr      19.29334000      11.97499000      13.54331000       0.00658800       0.00662400       0.00107100
Zr      11.74794000      17.15168000      17.36829000      -0.00950400      -0.00734700       0.01484400
Zr      10.52287000      12.84432000      16.43724000      -0.01810000       0.02039300       0.00092000
Zr      18.72281000      17.81322000      16.56848000      -0.00112900       0.00230900      -0.00486900
Zr      15.14178000      17.20173000      12.92173000       0.00241800      -0.00420700       0.00561800
Zr      18.51080000      12.25113000      16.70417000       0.01493000      -0.00178100      -0.00637000
Zr      14.67060000      12.68492000      12.54198000      -0.00416300       0.00789600      -0.00298400
Zr      12.53272000      14.03304000      18.50240000       0.00276800       0.00867600       0.02437500
Zr       9.58250000      15.68993000      15.44949000      -0.00122300      -0.01630800      -0.00067700
Zr      16.23403000      19.62002000      14.91118000      -0.00000100       0.00476900       0.00227600
Zr      16.86012000      14.49572000      15.00224000      -0.00458000      -0.00004700       0.00330700
Zr      12.43753000      14.90452000      11.59975000       0.00379500      -0.00079300      -0.00418200
Zr      16.50691000      10.54385000      14.16278000      -0.00740800       0.00500400      -0.02187500
Zr      13.15266000      19.78684000      15.40157000      -0.00388500       0.00900600      -0.00673500
Zr      18.13803000      15.02657000      18.00158000      -0.00821900      -0.01648200      -0.00167500
Zr      13.43301000      15.32691000      15.05778000       0.00870300      -0.00779300       0.00343200
Zr      13.39601000      10.45836000      14.81403000      -0.00269800      -0.00901200       0.00387500
Zr      20.41860000      15.00642000      14.58152000       0.00539900      -0.01012500      -0.00389400
Zr      17.67640000      15.01175000      11.86661000       0.00099200      -0.01220800      -0.00110100
O       13.67622000      16.42221000      16.82855000       0.00991800      -0.00201800       0.00455600
O        9.37611000      16.92052000      13.86775000       0.00240000       0.00220900      -0.00127400
O       13.58940000      10.94272000      16.69393000      -0.00146100       0.01129400      -0.00743400
O       18.40968000      15.52855000      13.77787000      -0.00864200      -0.00922600      -0.00569200
O       18.33959000      10.22537000      13.42365000      -0.00701000      -0.00552200       0.00479000
O       12.31429000      19.08134000      17.05870000       0.00191600      -0.00369900      -0.00469800
O       12.15174000      14.16570000      16.50371000       0.00720600      -0.00127900       0.00342500
O       15.91366000      19.02267000      13.05405000       0.00571600       0.00534700      -0.00363000
O       19.16790000      14.30604000      16.09579000      -0.00112700      -0.00989800       0.00361400
O       16.10822000      14.11868000      13.06445000       0.00338600      -0.01096800       0.00522400
O       14.28725000      13.15875000      18.47352000       0.00049600      -0.00806500       0.00487300
O       10.43934000      13.97322000      14.48495000       0.00212500      -0.00900600       0.00189900
O       18.29564000      18.88284000      14.59387000       0.00980000       0.00280800       0.00218900
O       17.64522000      12.58944000      14.56562000       0.00370000      -0.01584100      -0.00665800
O       13.97952000      13.81988000      10.98719000      -0.00136300       0.00112900      -0.00790500
O       16.32316000      16.02799000      18.48846000       0.00042700       0.01197200      -0.00240100
O       11.59475000      16.46686000      15.19730000      -0.00294800      -0.00328400       0.00577300
O       11.14491000      11.38867000      15.04628000      -0.00277400       0.00511800       0.00014100
O       20.06020000      17.04882000      15.40226000      -0.00826300      -0.00326200       0.01472500
O       15.94228000      16.25551000      11.50034000      -0.01119300       0.00770400       0.01699100
O       19.84206000      11.50966000      15.49538000       0.01072800       0.00263400      -0.00134000
O       15.90172000      11.20510000      12.34621000       0.01234600      -0.02406100       0.01438700
O       11.06959000      12.73222000      18.37082000      -0.01004900      -0.00895700      -0.00988700
O       14.57571000      18.43476000      15.29692000      -0.00575600       0.00059800      -0.01837300
O       18.85888000      13.23225000      18.49115000      -0.00942300       0.02294900      -0.00580700
O       14.82588000      14.06922000      15.71373000      -0.00446000       0.00620600       0.00889700
O       11.03121000      13.54344000      11.57641000       0.00046300       0.00135900      -0.00864500
O       14.91985000       9.27293000      14.45628000       0.01145100      -0.00204600      -0.00711300
O       18.64114000      13.32033000      11.94430000      -0.00981300       0.00705900       0.00526000
O       12.03178000      15.94727000      18.92698000       0.00930000       0.00571700      -0.01134300
O       14.79629000      20.98663000      15.22500000       0.00691400       0.00101700      -0.00157800
O       19.19158000      16.77610000      18.16989000       0.00013600       0.00262200       0.00315400
O       15.49076000      16.20883000      14.67493000      -0.01318000       0.00497300      -0.01248900
O       11.35687000      16.65402000      11.49860000      -0.00035100       0.00961700      -0.00204600
O       14.85493000      11.89280000      14.64122000       0.01390400      -0.00519800      -0.00105900
O       18.62317000      16.81212000      11.57435000      -0.00768300       0.01639900       0.01370100
O        9.82421000      16.84315000      17.03874000       0.00931900       0.00752000       0.00626100
O       17.46735000      16.23051000      16.20023000      -0.00768400       0.00365500       0.01146500
O       13.23314000      16.46401000      13.16298000      -0.00544000       0.00924900      -0.00358600
O       16.76643000      11.04527000      16.51172000      -0.00289300      -0.00478100      -0.00240400
O       12.92245000      11.36842000      12.94223000       0.00206800      -0.00535300       0.00309200
O       20.95024000      16.39363000      13.17982000      -0.00782400      -0.00188000       0.00133900
O        8.95813000      14.02491000      16.50723000       0.01785000      -0.00746500      -0.00670500
O       16.74136000      18.72352000      16.81331000       0.00224000      -0.00327500      -0.00071900
O       12.00954000      19.24589000      13.86141000       0.00396800       0.00436300      -0.01094100
O       16.85853000      13.65964000      16.91772000       0.00057000      -0.00007200       0.00796800
O       12.91270000      13.93747000      13.46959000       0.00768500       0.01020300      -0.00761900
O       20.86557000      13.36577000      13.74175000      -0.01467500       0.00179600       0.00671200
