72
Lattice="30.0 0.0 0.0 0.0 30.0 0.0 0.0 0.0 30.0" Properties=species:S:1:pos:R:3:forces:R:3 energy=-655.37007127 stress="-8.04339 0.02066 0.03571 0.02066 -7.4333 0.10292 0.03571 0.10292 -7.79139" pbc="T T T"
Zr      15.64535000      16.96394000      16.94006000       0.01373100      -0.00291200       0.02779100
Zr      11.20860000      17.46343000      13.30126000      -0.00525600      -0.01454500      -0.00847600
Zr      15.09950000      12.28880000      16.83347000      -0.00855700       0.01059100      -0.00183700
Zr      11.31367000      12.60020000      13.31741000       0.00806000       0.00050100      -0.00316900
Zr      19.31090000      17.44375000      13.28785000      -0.00470300      -0.01245200      -0.02544000
Zr      19.29323000      11.97492000      13.54349000       0.01077000       0.00944100       0.00291600
Zr      11.74825000      17.15159000      17.36838000      -0.01475600      -0.00772900       0.01585300
Zr      10.52304000      12.84408000      16.43684000      -0.02751000       0.02469900       0.00221600
Zr      18.72305000      17.81322000      16.56841000      -0.00409000       0.00224900      -0.00472600
Zr      15.14140000      17.20240000      12.92234000       0.00409300      -0.00517600       0.00734700
Zr      18.51057000      12.25123000      16.70436000       0.02243600      -0.00007000      -0.00544300
Zr      14.67100000      12.68458000      12.54177000      -0.01693000       0.01300200      -0.00230300
Zr      12.53248000      14.03261000      18.50234000       0.00411600       0.01320600       0.02586300
Zr       9.58262000      15.69002000      15.44944000      -0.00309000      -0.02178700       0.00562700
Zr      16.23448000      19.62045000      14.91100000      -0.00398000       0.00712500       0.00516200
Zr      16.85999000      14.49548000      15.00242000      -0.00395100       0.00442100       0.00086200
Zr      12.43805000      14.90466000      11.59977000       0.00445200      -0.00272300      -0.00604200
Zr      16.50701000      10.54377000      14.16313000      -0.00759600       0.00213900      -0.01982200
Zr      13.15280000      19.78676000      15.40160000      -0.00284200       0.01179500      -0.00758100
Zr      18.13792000      15.02694000      18.00150000      -0.00951300      -0.01878100      -0.00049100
Zr      13.43288000      15.32678000      15.05790000       0.00808900      -0.00899300       0.00067600
Zr      13.39613000      10.45809000      14.81399000      -0.00773700      -0.00517600       0.00325400
Zr      20.41836000      15.00660000      14.58136000       0.00653100      -0.01404300      -0.00387200
Zr      17.67591000      15.01161000      11.86668000       0.00273400      -0.00813800      -0.00002600
O       13.67628000      16.42233000      16.82836000       0.01077400      -0.00084800       0.00472400
O        9.37609000      16.92048000      13.86795000       0.00262600       0.00475800      -0.00453000
O       13.58904000      10.94266000      16.69385000       0.00135700       0.01351000      -0.00662500
O       18.40960000      15.52841000      13.77790000      -0.01007400      -0.00790400      -0.00667700
O       18.33984000      10.22520000      13.42402000      -0.01022000      -0.00557200       0.00537100
O       12.31461000      19.08126000      17.05874000       0.00322400      -0.00259200      -0.00537000
O       12.15149000      14.16581000      16.50378000       0.00954700      -0.00100400       0.00205300
O       15.91418000      19.02325000      13.05401000       0.00483600       0.00373300      -0.00491500
O       19.16774000      14.30599000      16.09568000      -0.00150900      -0.00950600       0.00395700
O       16.10812000      14.11824000      13.06461000       0.00508500      -0.00922100       0.00656500
O       14.28704000      13.15864000      18.47354000       0.00134300      -0.00942500       0.00441900
O       10.43955000      13.97335000      14.48476000       0.00358500      -0.01035700       0.00067200
O       18.29597000      18.88302000      14.59363000       0.00909200       0.00330800       0.00409000
O       17.64520000      12.58928000      14.56599000       0.00257600      -0.01757600      -0.00873500
O       13.97990000      13.81964000      10.98701000      -0.00192400       0.00161400      -0.00742200
O       16.32312000      16.02801000      18.48821000      -0.00150500       0.01533000      -0.00832400
O       11.59480000      16.46694000      15.19738000      -0.00262000      -0.00243900       0.00493500
O       11.14492000      11.38863000      15.04600000      -0.00292900       0.00514500      -0.00111800
O       20.06032000      17.04873000      15.40218000      -0.00819600      -0.00186900       0.01495200
O       15.94157000      16.25555000      11.50111000      -0.01368100       0.00985900       0.02040200
O       19.84211000      11.50973000      15.49574000       0.00799300       0.00358400      -0.00273100
O       15.90181000      11.20491000      12.34638000       0.01827300      -0.03034200       0.01486100
O       11.06935000      12.73195000      18.37044000      -0.01037000      -0.01080400      -0.00814100
O       14.57604000      18.43483000      15.29626000      -0.00517600       0.00094400      -0.01858600
O       18.85875000      13.23261000      18.49133000      -0.01096600       0.02283200      -0.00786500
O       14.82573000      14.06917000      15.71386000      -0.00422700       0.00441400       0.00935700
O       11.03162000      13.54371000      11.57605000       0.00125900       0.00052000      -0.00621800
O       14.91983000       9.27270000      14.45644000       0.01650000      -0.00220600      -0.00777100
O       18.64086000      13.32050000      11.94451000      -0.00875600       0.00379300       0.00546700
O       12.03199000      15.94713000      18.92696000       0.01009900       0.00363200      -0.01166200
O       14.79640000      20.98690000      15.22520000       0.00645700      -0.00282700      -0.00180400
O       19.19150000      16.77630000      18.17002000       0.00085700       0.00443900       0.00206200
O       15.49054000      16.20865000      14.67534000      -0.01245000       0.00652200      -0.01600700
O       11.35706000      16.65410000      11.49864000       0.00012900       0.01030500      -0.00000900
O       14.85479000      11.89274000      14.64129000       0.01767900      -0.00650500      -0.00158900
O       18.62256000      16.81198000      11.57423000      -0.00692500       0.01793300       0.01648300
O        9.82433000      16.84294000      17.03893000       0.01268500       0.00817000       0.00611900
O       17.46752000      16.23052000      16.20005000      -0.00796300       0.00585700       0.01194100
O       13.23305000      16.46411000      13.16322000      -0.00535600       0.00999800      -0.00306200
O       16.76624000      11.04529000      16.51204000      -0.00245100      -0.00671400      -0.00324900
O       12.92257000      11.36818000      12.94220000       0.00127100      -0.00418500       0.00275500
O       20.94993000      16.39365000      13.17934000      -0.00892400      -0.00089600       0.00256700
O        8.95794000      14.02477000      16.50682000       0.02260400      -0.00977700      -0.00832000
O       16.74143000      18.72360000      16.81309000       0.00375600      -0.00181200      -0.00196200
O       12.00948000      19.24593000      13.86146000       0.00529300       0.00585500      -0.00987400
O       16.85838000      13.65954000      16.91771000       0.00035900       0.00060400       0.00974400
O       12.91297000      13.93744000      13.46928000       0.00806200       0.01029800      -0.00566200
O       20.86543000      13.36583000      13.74185000      -0.01559600       0.00077900       0.00639100
