72
Lattice="30.0 0.0 0.0 0.0 30.0 0.0 0.0 0.0 30.0" Properties=species:S:1:pos:R:3:forces:R:3 energy=-655.37097642 stress="-7.94352 -0.08307 0.0136 -0.08307 -7.3987 -0.01535 0.0136 -0.01535 -7.62336" pbc="T T T"
Zr      15.64642000      16.96624000      16.93834000      -0.01515900      -0.00530900       0.01051600
Zr      11.20838000      17.46304000      13.30130000       0.00643600       0.00543000      -0.00357000
Zr      15.09821000      12.28899000      16.83338000       0.00402600      -0.00891100       0.00720100
Zr      11.31645000      12.60082000      13.31493000      -0.00244400       0.00249600      -0.00616600
Zr      19.30812000      17.44341000      13.28464000      -0.00312600       0.00015000       0.01869000
Zr      19.29311000      11.97435000      13.54593000       0.00418800      -0.00754600       0.00084500
Zr      11.74923000      17.15071000      17.36991000       0.00956900       0.00434800      -0.01205100
Zr      10.52211000      12.84407000      16.43388000       0.01537500      -0.01309800      -0.00107500
Zr      18.72455000      17.81364000      16.56770000      -0.00351200       0.00486700      -0.00152300
Zr      15.13849000      17.20858000      12.92909000      -0.00443800       0.00770100      -0.00119700
Zr      18.51124000      12.25165000      16.70543000      -0.00894700      -0.00231700       0.00127200
Zr      14.67213000      12.68218000      12.54001000       0.00035500      -0.02195200       0.00610800
Zr      12.53030000      14.02992000      18.50448000       0.00235800      -0.00991700      -0.00286700
Zr       9.58376000      15.68923000      15.44990000       0.00683100       0.00856200      -0.00486400
Zr      16.23738000      19.62493000      14.90988000      -0.00505000      -0.00436700      -0.00194900
Zr      16.85854000      14.49449000      15.00387000       0.00564700      -0.00668300      -0.00805900
Zr      12.44285000      14.90621000      11.59891000       0.00474800       0.00187200      -0.01901700
Zr      16.50717000      10.54257000      14.16417000       0.01357700      -0.00987200       0.00302400
Zr      13.15391000      19.78729000      15.40066000      -0.00099600       0.00258900      -0.00749300
Zr      18.13590000      15.02887000      18.00098000       0.00291000      -0.00096500       0.00122100
Zr      13.43218000      15.32561000      15.05891000       0.00165200       0.00447900       0.00475400
Zr      13.39635000      10.45545000      14.81406000       0.01265800       0.00914600      -0.01070800
Zr      20.41655000      15.00761000      14.58033000      -0.00624200      -0.02087700       0.00239800
Zr      17.67157000      15.01045000      11.86759000      -0.00316000       0.00006900       0.00656800
O       13.67809000      16.42337000      16.82737000      -0.00447500       0.01010200       0.00245600
O        9.37601000      16.92046000      13.86908000      -0.00041400      -0.00422100      -0.00070000
O       13.58652000      10.94404000      16.69233000      -0.00213000       0.00347500      -0.00003500
O       18.40753000      15.52631000      13.77720000      -0.00452200       0.01122200       0.00108600
O       18.34118000      10.22372000      13.42774000       0.00332100      -0.00378600      -0.00057800
O       12.31795000      19.08020000      17.05827000       0.00554700       0.00088400      -0.01129500
O       12.15074000      14.16670000      16.50504000       0.00896400      -0.00087500       0.00846000
O       15.91915000      19.02827000      13.05304000       0.00441500      -0.00022300      -0.00187200
O       19.16624000      14.30442000      16.09493000      -0.00171000       0.00354400      -0.00328900
O       16.10804000      14.11346000      13.06671000       0.00055400      -0.00107600       0.00113300
O       14.28513000      13.15670000      18.47457000      -0.01030600      -0.00096300       0.01043300
O       10.44194000      13.97331000      14.48293000       0.00694000       0.00227000      -0.00285400
O       18.29986000      18.88496000      14.59226000      -0.00059600       0.00160800       0.01077700
O       17.64526000      12.58622000      14.56794000      -0.00784500       0.01252400       0.00092300
O       13.98302000      13.81765000      10.98454000      -0.00439000       0.00034800       0.00449500
O       16.32244000      16.03021000      18.48544000      -0.00639900       0.00846200       0.02350000
O       11.59476000      16.46706000      15.19866000      -0.00227400      -0.00315500       0.00125800
O       11.14456000      11.38919000      15.04311000      -0.00199800       0.00333600      -0.00817600
O       20.06068000      17.04727000      15.40288000       0.00211800      -0.00861500      -0.00335600
O       15.93422000      16.25655000      11.50979000      -0.00146000      -0.00155100       0.01203300
O       19.84365000      11.51091000      15.49810000       0.00941300      -0.00217600      -0.00062000
O       15.90435000      11.20012000      12.34891000      -0.01422600       0.01043700      -0.01857100
O       11.06653000      12.72876000      18.36672000       0.00187100       0.00242000       0.01413200
O       14.57820000      18.43597000      15.28827000      -0.00355800       0.00635400      -0.01268400
O       18.85658000      13.23770000      18.49202000       0.00533400      -0.01158900       0.00138800
O       14.82443000      14.06876000      15.71612000      -0.00148200      -0.00207300      -0.00222300
O       11.03557000      13.54593000      11.57270000       0.00975800      -0.00228600       0.01425300
O       14.92160000       9.27062000      14.45694000      -0.01197400       0.00280200       0.00391600
O       18.63783000      13.32170000      11.94683000       0.00039500      -0.00772700      -0.00314000
O       12.03526000      15.94575000      18.92639000       0.00491400      -0.00389900       0.01242800
O       14.79801000      20.98858000      15.22676000      -0.00588400      -0.00217000       0.00051600
O       19.19076000      16.77846000      18.17105000      -0.00427500       0.00213000      -0.00801500
O       15.48775000      16.20739000      14.67669000       0.01194100      -0.01103500      -0.00892500
O       11.35882000      16.65564000      11.49883000      -0.00009300      -0.00333300      -0.00587900
O       14.85573000      11.89145000      14.64148000      -0.00194200      -0.00763300      -0.00650400
O       18.61600000      16.81279000      11.57454000      -0.01178400       0.01274000      -0.01000300
O        9.82647000      16.84172000      17.04095000      -0.01113800      -0.00267300      -0.00139700
O       17.46786000      16.23109000      16.19959000      -0.00629500       0.00356500      -0.00428200
O       13.23151000      16.46598000      13.16495000      -0.00758200       0.00236000       0.00530900
O       16.76470000      11.04494000      16.51455000       0.01113100       0.00611900       0.00182300
O       12.92381000      11.36604000      12.94206000       0.00246900       0.00564900      -0.00252600
O       20.94637000      16.39332000      13.17575000      -0.00434600      -0.00319300       0.00557300
O        8.95810000      14.02282000      16.50256000      -0.01651000       0.01149400       0.00323300
O       16.74262000      18.72460000      16.81084000       0.00253800       0.01348200      -0.00581000
O       12.00973000      19.24702000      13.86078000       0.00657600      -0.00080000      -0.00438700
O       16.85706000      13.65891000      16.91875000       0.00307800       0.00742100       0.00131400
O       12.91647000      13.93805000      13.46603000       0.00677500      -0.00502500       0.00425200
O       20.86283000      13.36564000      13.74291000       0.00429800       0.00543200       0.00036800
