72
Lattice="30.0 0.0 0.0 0.0 30.0 0.0 0.0 0.0 30.0" Properties=species:S:1:pos:R:3:forces:R:3 energy=-655.37138587 stress="-7.918 -0.04453 -0.02736 -0.04453 -7.48403 -0.02067 -0.02736 -0.02067 -7.64856" pbc="T T T"
Zr      15.64613000      16.96718000      16.93828000       0.00589400       0.00662700      -0.00248800
Zr      11.20876000      17.46313000      13.30107000      -0.00454700       0.00030200      -0.00461900
Zr      15.09750000      12.28830000      16.83363000       0.00759900       0.00986900       0.01742300
Zr      11.31796000      12.60122000      13.31308000      -0.00081600       0.02180900       0.00558500
Zr      19.30611000      17.44325000      13.28393000      -0.00211100      -0.00998800       0.00405000
Zr      19.29303000      11.97320000      13.54772000       0.01017900       0.02212600      -0.01280600
Zr      11.75040000      17.15059000      17.36977000      -0.00193900      -0.01956600       0.01031400
Zr      10.52259000      12.84314000      16.43210000      -0.00149700       0.00888800      -0.00400700
Zr      18.72527000      17.81437000      16.56725000       0.00148700       0.00541800      -0.01257500
Zr      15.13664000      17.21322000      12.93350000      -0.01130900       0.00455500      -0.00708100
Zr      18.51136000      12.25164000      16.70614000      -0.00997800       0.01323200       0.00799300
Zr      14.67261000      12.67924000      12.53939000      -0.00420100       0.01461200      -0.00681200
Zr      12.52882000      14.02740000      18.50580000      -0.00329400       0.00860900       0.00855600
Zr       9.58500000      15.68940000      15.45008000      -0.00987100      -0.00947700      -0.00250500
Zr      16.23871000      19.62734000      14.90905000       0.00997800      -0.00171400       0.00251600
Zr      16.85795000      14.49370000      15.00419000       0.00179600      -0.00330800      -0.00602000
Zr      12.44604000      14.90762000      11.59716000       0.00397300      -0.01269400       0.00221500
Zr      16.50839000      10.54091000      14.16495000      -0.00346100       0.00286800       0.00251600
Zr      13.15466000      19.78780000      15.39951000      -0.00107800       0.00814300      -0.00950200
Zr      18.13468000      15.03031000      18.00070000       0.00932700      -0.00678000      -0.00189900
Zr      13.43170000      15.32545000      15.05971000       0.00436300      -0.01419000      -0.00965700
Zr      13.39724000      10.45453000      14.81352000       0.00420500       0.01395200      -0.01456300
Zr      20.41493000      15.00737000      14.58010000      -0.00106900      -0.00925300      -0.00765200
Zr      17.66832000      15.01000000      11.86871000       0.00042100      -0.00275900      -0.00371500
O       13.67901000      16.42465000      16.82697000      -0.01068600       0.01441800      -0.00321300
O        9.37584000      16.92014000      13.86971000       0.01128100       0.00210200      -0.00891400
O       13.58499000      10.94531000      16.69134000      -0.00542900      -0.00509300       0.00537500
O       18.40584000      15.52563000      13.77672000      -0.00125000       0.01703300       0.00976400
O       18.34227000      10.22276000      13.42999000       0.00217400      -0.02140500      -0.00508500
O       12.32039000      19.07958000      17.05718000       0.00332100       0.00180500      -0.00899000
O       12.15100000      14.16718000      16.50648000       0.00162000      -0.00604000      -0.00180100
O       15.92244000      19.03120000      13.05232000       0.00890500       0.00748400      -0.00426500
O       19.16522000      14.30360000      16.09422000      -0.00730500       0.00574400       0.00251200
O       16.10811000      14.11045000      13.06810000      -0.00530700      -0.00184000      -0.00305300
O       14.28324000      13.15545000      18.47599000       0.00883100      -0.01328300      -0.00041100
O       10.44388000      13.97337000      14.48157000       0.00870500       0.00484700       0.00429300
O       18.30224000      18.88628000      14.59218000      -0.00606100       0.00126600       0.01252200
O       17.64481000      12.58510000      14.56905000      -0.00099700       0.00106700       0.00435300
O       13.98466000      13.81644000      10.98325000      -0.00028300      -0.00457800       0.00931900
O       16.32156000      16.03222000      18.48519000      -0.00523400       0.00367800       0.03016800
O       11.59452000      16.46684000      15.19954000       0.00786100       0.00471000      -0.00003700
O       11.14416000      11.38986000      15.04070000       0.00091400      -0.00785500      -0.00072600
O       20.06108000      17.04571000      15.40307000      -0.00575100      -0.00076500       0.00048600
O       15.92971000      16.25694000      11.51582000      -0.00255000      -0.00184500       0.01017000
O       19.84527000      11.51154000      15.49935000      -0.00296000      -0.00397900       0.00487400
O       15.90505000      11.19777000      12.34921000      -0.00249700      -0.00343400      -0.01398400
O       11.06503000      12.72704000      18.36542000      -0.00753100      -0.00833900       0.01211100
O       14.57922000      18.43722000      15.28244000       0.00080500      -0.01175600      -0.00656500
O       18.85558000      13.24005000      18.49250000       0.01002500      -0.02111300      -0.00079000
O       14.82367000      14.06824000      15.71746000      -0.00482500      -0.00758300      -0.00498200
O       11.03864000      13.54707000      11.57166000       0.00654400       0.00469100       0.00203900
O       14.92206000       9.26953000      14.45744000      -0.00682000      -0.00291000       0.00628500
O       18.63608000      13.32171000      11.94806000       0.00027500      -0.00719500       0.00033300
O       12.03767000      15.94447000      18.92702000      -0.00123600       0.00836800      -0.00640000
O       14.79862000      20.98934000      15.22773000      -0.01032100       0.00521100       0.00028000
O       19.18998000      16.77990000      18.17109000      -0.00434400      -0.00229400      -0.00548100
O       15.48684000      16.20582000      14.67676000       0.01049600      -0.00668000      -0.00067900
O       11.35993000      16.65634000      11.49851000      -0.00368900       0.00046800      -0.00670300
O       14.85634000      11.89017000      14.64111000       0.00308900      -0.00714700      -0.00114500
O       18.61110000      16.81411000      11.57400000      -0.00725500       0.00769500       0.00445900
O        9.82709000      16.84073000      17.04201000      -0.00029500       0.00521200       0.00369700
O       17.46756000      16.23162000      16.19901000      -0.00708400       0.00699000       0.00104500
O       13.23002000      16.46728000      13.16630000      -0.00383200       0.00176900       0.00889400
O       16.76453000      11.04515000      16.51619000       0.01170700      -0.00042400      -0.00031100
O       12.92470000      11.36520000      12.94178000       0.00481700      -0.00183300      -0.00672200
O       20.94395000      16.39280000      13.17395000      -0.00831600      -0.00240400       0.00782400
O        8.95707000      14.02241000      16.50017000       0.00804400      -0.00247600      -0.00015200
O       16.74358000      18.72618000      16.80905000      -0.01096900       0.00334200      -0.00259900
O       12.01037000      19.24767000      13.86003000       0.00255700      -0.00413800      -0.00710300
O       16.85641000      13.65902000      16.91953000       0.00362800       0.00556700      -0.00074900
O       12.91911000      13.93810000      13.46427000       0.00163600      -0.00435700       0.01028800
O       20.86155000      13.36552000      13.74339000       0.01154200      -0.00398000      -0.00549600
