72
Lattice="30.0 0.0 0.0 0.0 30.0 0.0 0.0 0.0 30.0" Properties=species:S:1:pos:R:3:forces:R:3 energy=-655.371721 stress="-8.001 -0.04145 -0.06529 -0.04145 -7.63207 -0.02752 -0.06529 -0.02752 -7.72827" pbc="T T T"
Zr      15.64624000      16.96803000      16.93814000       0.00799200       0.00376200       0.00982300
Zr      11.20880000      17.46322000      13.30065000       0.00199300      -0.00017200      -0.00230900
Zr      15.09753000      12.28839000      16.83465000      -0.00408800      -0.00974800       0.00559500
Zr      11.31875000      12.60252000      13.31228000       0.00839400      -0.00622600       0.01463300
Zr      19.30487000      17.44263000      13.28377000      -0.01037900       0.00137400       0.00124500
Zr      19.29352000      11.97366000      13.54809000      -0.01312800      -0.01589900       0.00047900
Zr      11.75101000      17.14954000      17.37020000      -0.00209700       0.01014900      -0.00267100
Zr      10.52280000      12.84308000      16.43092000       0.00343000      -0.00281900       0.01228900
Zr      18.72576000      17.81507000      16.56633000      -0.00763100      -0.00005900       0.00034000
Zr      15.13508000      17.21609000      12.93557000      -0.00581200       0.01418800       0.01016600
Zr      18.51094000      12.25233000      16.70700000       0.00619400      -0.00901600      -0.00317700
Zr      14.67257000      12.67813000      12.53872000       0.00500400      -0.00749300      -0.00098000
Zr      12.52783000      14.02640000      18.50695000      -0.00082100      -0.00402000       0.00199300
Zr       9.58529000      15.68904000      15.45001000      -0.00084800       0.01312100       0.00337800
Zr      16.23998000      19.62864000      14.90869000      -0.00980000       0.00284800       0.00080400
Zr      16.85772000      14.49303000      15.00406000      -0.00756100       0.00359900       0.00142600
Zr      12.44808000      14.90779000      11.59619000      -0.00673100       0.01196800       0.01354600
Zr      16.50895000      10.54006000      14.16552000      -0.00904300      -0.00143400      -0.00536400
Zr      13.15502000      19.78849000      15.39843000       0.00140800      -0.00285600      -0.00194200
Zr      18.13446000      15.03077000      18.00045000       0.00161700       0.00367600       0.00682400
Zr      13.43167000      15.32464000      15.05968000       0.00166000      -0.00178600      -0.00280600
Zr      13.39795000      10.45475000      14.81245000      -0.00929600       0.00459300       0.00483600
Zr      20.41395000      15.00671000      14.57959000      -0.00199300       0.01046200       0.00163700
Zr      17.66640000      15.00972000      11.86914000       0.00721100       0.00611600      -0.00226400
O       13.67897000      16.42613000      16.82659000       0.00159900       0.00531200      -0.01160700
O        9.37632000      16.92003000      13.86964000       0.00507300      -0.00227900      -0.00654300
O       13.58381000      10.94580000      16.69104000       0.00545800       0.00269300      -0.00078200
O       18.40479000      15.52612000      13.77694000      -0.00292400       0.00814300       0.00421200
O       18.34302000      10.22110000      13.43105000       0.00585700       0.00544900      -0.00154300
O       12.32200000      19.07930000      17.05607000      -0.00024700      -0.00647400      -0.00684300
O       12.15125000      14.16715000      16.50725000      -0.00212100      -0.00610300       0.00195500
O       15.92483000      19.03329000      13.05168000       0.00910800       0.00236100      -0.00364200
O       19.16425000      14.30342000      16.09392000      -0.00469000       0.01078300      -0.00002900
O       16.10789000      14.10861000      13.06875000      -0.00016000       0.00308200      -0.00903500
O       14.28256000      13.15405000      18.47682000       0.00196500      -0.00486400       0.00372900
O       10.44547000      13.97366000      14.48099000       0.00332700       0.01321500       0.00994800
O       18.30333000      18.88711000      14.59279000      -0.00286600      -0.00054600       0.00891500
O       17.64448000      12.58455000      14.56993000       0.00909100      -0.00217600      -0.00341700
O       13.98559000      13.81550000      10.98298000       0.00333800      -0.00258500      -0.00184400
O       16.32077000      16.03359000      18.48663000       0.00243900       0.00464900       0.00582600
O       11.59477000      16.46694000      15.20006000       0.00272500      -0.00016400      -0.00159400
O       11.14396000      11.38987000      15.03924000      -0.00157200       0.00107000      -0.00016200
O       20.06102000      17.04474000      15.40320000      -0.00237600      -0.00178200      -0.00298300
O       15.92695000      16.25710000      11.51989000       0.00365500      -0.01020800      -0.00329800
O       19.84610000      11.51169000      15.50034000      -0.01827800       0.00803100       0.00171000
O       15.90529000      11.19627000      12.34862000      -0.00343000       0.00165700      -0.00202800
O       11.06377000      12.72562000      18.36530000      -0.00038700       0.00545400       0.00148600
O       14.57983000      18.43736000      15.27870000       0.00652800      -0.00901100      -0.00614300
O       18.85552000      13.24034000      18.49275000       0.00912500      -0.01258500       0.00040300
O       14.82297000      14.06757000      15.71798000       0.00099500      -0.01329600      -0.00313200
O       11.04080000      13.54797000      11.57119000      -0.00327100       0.00505100      -0.01016600
O       14.92194000       9.26875000      14.45806000       0.00313200      -0.00225300       0.00371500
O       18.63507000      13.32136000      11.94878000      -0.00076800       0.00318300       0.00136200
O       12.03903000      15.94414000      18.92709000      -0.00322700      -0.00187700       0.00307300
O       14.79844000      20.99005000      15.22832000      -0.00004100       0.00256900      -0.00177900
O       19.18930000      16.78063000      18.17082000      -0.00310600      -0.00418100      -0.00725000
O       15.48686000      16.20455000      14.67676000       0.00255200      -0.00044400      -0.00753500
O       11.36039000      16.65675000      11.49797000       0.00259000      -0.00803600      -0.00728800
O       14.85681000      11.88904000      14.64082000       0.01108100       0.00565000       0.00076700
O       18.60785000      16.81530000      11.57389000      -0.00638000      -0.00326700       0.00888100
O        9.82740000      16.84039000      17.04281000      -0.00167500      -0.00472100      -0.00671200
O       17.46702000      16.23228000      16.19871000      -0.00261100       0.00426600       0.00554000
O       13.22895000      16.46813000      13.16756000       0.00150300      -0.00416100       0.00208400
O       16.76504000      11.04527000      16.51714000       0.00546300       0.00024800       0.00188000
O       12.92547000      11.36462000      12.94128000      -0.00448800       0.00831800      -0.01256300
O       20.94210000      16.39237000      13.17331000      -0.00048600      -0.00761100       0.00381300
O        8.95682000      14.02208000      16.49877000       0.01056700      -0.00587200      -0.00210900
O       16.74360000      18.72730000      16.80786000      -0.01209600      -0.00150800       0.00153700
O       12.01088000      19.24783000      13.85923000      -0.00132000      -0.00380500      -0.01231300
O       16.85622000      13.65938000      16.91995000      -0.00168200       0.00800500       0.00097900
O       12.92074000      13.93788000      13.46378000      -0.00015200      -0.00212800       0.00544800
O       20.86139000      13.36530000      13.74343000       0.01751000      -0.01158400      -0.01242400
