72
Lattice="30.0 0.0 0.0 0.0 30.0 0.0 0.0 0.0 30.0" Properties=species:S:1:pos:R:3:forces:R:3 energy=-655.37198825 stress="-8.0478 0.05111 -0.06652 0.05111 -7.71049 -0.04189 -0.06652 -0.04189 -7.82765" pbc="T T T"
Zr      15.64670000      16.96873000      16.93851000      -0.00323200      -0.00760500       0.01378200
Zr      11.20890000      17.46327000      13.30028000       0.00623500      -0.00703900      -0.00425100
Zr      15.09736000      12.28800000      16.83557000       0.00738300      -0.00867400      -0.00506900
Zr      11.31962000      12.60309000      13.31255000      -0.00133900      -0.00011200      -0.00403900
Zr      19.30360000      17.44230000      13.28373000      -0.00476000       0.00555000       0.00427700
Zr      19.29324000      11.97325000      13.54828000      -0.00094200      -0.00686300       0.00043200
Zr      11.75129000      17.14934000      17.37041000       0.00173400       0.00893400      -0.00803600
Zr      10.52306000      12.84297000      16.43078000       0.00232700      -0.00722900       0.00736700
Zr      18.72578000      17.81547000      16.56553000      -0.00549600      -0.00507400      -0.00314200
Zr      15.13379000      17.21852000      12.93725000       0.01437400      -0.00933300      -0.00813200
Zr      18.51099000      12.25233000      16.70736000       0.00032500      -0.00441900      -0.00143000
Zr      14.67277000      12.67715000      12.53828000       0.00486400       0.00329600      -0.00675000
Zr      12.52721000      14.02565000      18.50775000       0.00854300      -0.00705800      -0.00380100
Zr       9.58539000      15.68942000      15.45013000       0.00269900       0.00737900      -0.00040800
Zr      16.24030000      19.62956000      14.90855000      -0.00820300       0.00308900      -0.00006400
Zr      16.85729000      14.49268000      15.00409000      -0.00296700      -0.00055500       0.00154800
Zr      12.44899000      14.90842000      11.59629000       0.00295900       0.00222600       0.00767300
Zr      16.50883000      10.53951000      14.16560000       0.00022600      -0.00000500      -0.01058100
Zr      13.15528000      19.78879000      15.39769000       0.00055000      -0.01683300      -0.00592500
Zr      18.13443000      15.03118000      18.00063000      -0.00190400      -0.01060600       0.00672300
Zr      13.43174000      15.32404000      15.05951000       0.00501600       0.00195300       0.00713600
Zr      13.39795000      10.45513000      14.81203000      -0.00090500      -0.00124400       0.00355100
Zr      20.41326000      15.00679000      14.57936000       0.00285600      -0.02079400      -0.00978500
Zr      17.66553000      15.00984000      11.86930000      -0.00077400      -0.00362600       0.00448700
O       13.67898000      16.42732000      16.82581000       0.00698600       0.00148000      -0.01089800
O        9.37687000      16.91986000      13.86926000      -0.00135000      -0.00150800      -0.00429500
O       13.58335000      10.94621000      16.69086000       0.00213400       0.00082000      -0.00454400
O       18.40404000      15.52686000      13.77730000      -0.00512700       0.00246200       0.00107300
O       18.34376000      10.22031000      13.43159000      -0.00390700       0.00833300       0.00045900
O       12.32296000      19.07881000      17.05505000      -0.00131800      -0.00275200      -0.00515400
O       12.15129000      14.16682000      16.50780000       0.00072800      -0.00398900       0.00780200
O       15.92672000      19.03468000      13.05109000       0.00869500       0.00383100      -0.00034700
O       19.16345000      14.30384000      16.09375000      -0.00327600       0.01204600       0.00145500
O       16.10774000      14.10765000      13.06870000       0.00439700       0.00219700      -0.00430400
O       14.28227000      13.15293000      18.47750000      -0.00727300       0.00166100       0.00840900
O       10.44660000      13.97448000      14.48113000       0.00396400       0.01109700       0.00826300
O       18.30384000      18.88758000      14.59361000      -0.00353400      -0.00027700       0.00583700
O       17.64472000      12.58412000      14.57032000       0.00174400       0.00135400      -0.00412500
O       13.98630000      13.81480000      10.98274000      -0.00316100       0.00234200       0.00018500
O       16.32040000      16.03464000      18.48786000       0.00680400       0.00504700      -0.00567400
O       11.59507000      16.46700000      15.20029000      -0.00335500       0.00086900      -0.00011500
O       11.14376000      11.38991000      15.03836000       0.00155900       0.00200000       0.00238300
O       20.06086000      17.04407000      15.40313000      -0.00190900       0.00156500      -0.00129300
O       15.92546000      16.25669000      11.52220000      -0.00763700       0.00477900       0.01117300
O       19.84571000      11.51216000      15.50103000      -0.00840900       0.00266800      -0.00407300
O       15.90526000      11.19543000      12.34813000       0.00350900      -0.00683300       0.00414900
O       11.06296000      12.72500000      18.36535000       0.00301600       0.00949700       0.00454400
O       14.58052000      18.43696000      15.27614000       0.00081200       0.00466500      -0.00911700
O       18.85594000      13.23985000      18.49291000       0.00438600       0.00451400      -0.00090200
O       14.82258000      14.06651000      15.71813000      -0.00199800      -0.00799400      -0.00207100
O       11.04196000      13.54878000      11.57043000      -0.00384300      -0.00021800       0.00465300
O       14.92201000       9.26818000      14.45862000      -0.00297000       0.00517800       0.00408100
O       18.63442000      13.32130000      11.94927000      -0.00172700       0.00847200       0.00142900
O       12.03968000      15.94388000      18.92727000      -0.00435000      -0.00480500       0.00302500
O       14.79829000      20.99062000      15.22859000      -0.00102500      -0.00114200      -0.00083100
O       19.18874000      16.78087000      18.17030000       0.00114600      -0.00062400      -0.00418600
O       15.48703000      16.20374000      14.67640000      -0.00407700       0.00265200      -0.00844600
O       11.36078000      16.65662000      11.49728000       0.00226300      -0.00231200      -0.00165700
O       14.85764000      11.88863000      14.64069000       0.00466300       0.00154100       0.00121300
O       18.60557000      16.81587000      11.57426000      -0.00029800      -0.00002900       0.00378500
O        9.82752000      16.83998000      17.04300000      -0.00113600      -0.00070500      -0.00193800
O       17.46655000      16.23291000      16.19880000      -0.00148600       0.00159200       0.00649800
O       13.22836000      16.46844000      13.16844000       0.00050800      -0.00306000      -0.00117500
O       16.76565000      11.04536000      16.51781000      -0.00455300      -0.00069300       0.00310200
O       12.92572000      11.36467000      12.94035000      -0.00549000       0.00507300      -0.00420400
O       20.94093000      16.39174000      13.17314000      -0.00256800      -0.00007400      -0.00227800
O        8.95720000      14.02159000      16.49783000       0.00532900      -0.00281800       0.00138400
O       16.74300000      18.72790000      16.80722000      -0.00857400       0.00139100       0.00587500
O       12.01112000      19.24771000      13.85813000       0.00342800       0.00325400      -0.00497100
O       16.85604000      13.66000000      16.92025000      -0.00464200       0.00627500       0.00425500
O       12.92170000      13.93764000      13.46379000      -0.00068200      -0.00043700       0.00552900
O       20.86217000      13.36462000      13.74284000       0.00403900       0.00625900       0.00047500
