72
Lattice="30.0 0.0 0.0 0.0 30.0 0.0 0.0 0.0 30.0" Properties=species:S:1:pos:R:3:forces:R:3 energy=-655.37199957 stress="-8.0462 0.07999 -0.06992 0.07999 -7.73612 -0.04356 -0.06992 -0.04356 -7.85239" pbc="T T T"
Zr      15.64686000      16.96895000      16.93866000      -0.00668400      -0.01180500       0.01581800
Zr      11.20894000      17.46329000      13.30016000       0.00970900      -0.00958300      -0.00724100
Zr      15.09729000      12.28785000      16.83586000       0.01238300      -0.00689600      -0.00886000
Zr      11.31991000      12.60324000      13.31267000      -0.00371900       0.00293400      -0.00810800
Zr      19.30317000      17.44221000      13.28372000      -0.00160300       0.00660300       0.00549100
Zr      19.29311000      11.97308000      13.54834000       0.00485100      -0.00144800      -0.00039300
Zr      11.75138000      17.14931000      17.37047000       0.00282700       0.00670600      -0.00957600
Zr      10.52315000      12.84293000      16.43077000       0.00076800      -0.00685600       0.00503500
Zr      18.72577000      17.81559000      16.56527000      -0.00585400      -0.00768100      -0.00133900
Zr      15.13337000      17.21931000      12.93780000       0.01935800      -0.01534900      -0.01177600
Zr      18.51102000      12.25230000      16.70746000      -0.00249100      -0.00149100      -0.00009900
Zr      14.67285000      12.67682000      12.53814000       0.00519500       0.00919600      -0.00941500
Zr      12.52702000      14.02541000      18.50800000       0.01127600      -0.00576300      -0.00533500
Zr       9.58542000      15.68958000      15.45017000       0.00359500       0.00296700      -0.00336300
Zr      16.24037000      19.62986000      14.90851000      -0.00620300       0.00250000      -0.00222900
Zr      16.85714000      14.49257000      15.00410000      -0.00209300      -0.00242900       0.00084000
Zr      12.44925000      14.90865000      11.59636000       0.00813000      -0.00096100       0.00484700
Zr      16.50878000      10.53934000      14.16561000       0.00370800       0.00086400      -0.01210800
Zr      13.15536000      19.78887000      15.39746000       0.00009300      -0.02148000      -0.00864300
Zr      18.13442000      15.03132000      18.00070000      -0.00224900      -0.01723100       0.00605200
Zr      13.43177000      15.32386000      15.05945000       0.00752500       0.00155900       0.00962000
Zr      13.39793000      10.45525000      14.81191000       0.00256400      -0.00285100       0.00244200
Zr      20.41304000      15.00685000      14.57930000       0.00603500      -0.03320500      -0.01466800
Zr      17.66527000      15.00990000      11.86934000      -0.00285900      -0.00733500       0.00616600
O       13.67899000      16.42770000      16.82553000       0.00817600       0.00081500      -0.01066200
O        9.37705000      16.91980000      13.86913000      -0.00315500      -0.00112500      -0.00377600
O       13.58322000      10.94635000      16.69079000       0.00026300      -0.00033400      -0.00551900
O       18.40379000      15.52711000      13.77741000      -0.00604700       0.00073200       0.00031900
O       18.34401000      10.22009000      13.43176000      -0.00769300       0.00755000       0.00096500
O       12.32325000      19.07864000      17.05472000      -0.00152000      -0.00084700      -0.00486400
O       12.15130000      14.16671000      16.50797000       0.00180800      -0.00351700       0.00973500
O       15.92732000      19.03511000      13.05090000       0.00845100       0.00488300       0.00053900
O       19.16319000      14.30399000      16.09369000      -0.00329000       0.01227100       0.00207000
O       16.10770000      14.10736000      13.06866000       0.00590100       0.00183400      -0.00224900
O       14.28218000      13.15258000      18.47772000      -0.01010700       0.00339600       0.00985400
O       10.44696000      13.97476000      14.48120000       0.00443100       0.01009700       0.00748900
O       18.30399000      18.88772000      14.59389000      -0.00370300       0.00014700       0.00482900
O       17.64481000      12.58398000      14.57043000      -0.00143500       0.00263900      -0.00403100
O       13.98653000      13.81458000      10.98266000      -0.00568800       0.00373300       0.00162700
O       16.32030000      16.03498000      18.48824000       0.00764500       0.00526900      -0.00875900
O       11.59516000      16.46702000      15.20036000      -0.00533300       0.00135200       0.00058000
O       11.14370000      11.38993000      15.03809000       0.00259900       0.00170200       0.00324400
O       20.06080000      17.04386000      15.40310000      -0.00217300       0.00290900      -0.00023900
O       15.92501000      16.25654000      11.52290000      -0.01247000       0.01095100       0.01770800
O       19.84554000      11.51233000      15.50125000      -0.00453000       0.00016000      -0.00595100
O       15.90524000      11.19518000      12.34798000       0.00632200      -0.01073500       0.00561400
O       11.06271000      12.72483000      18.36536000       0.00342400       0.00949900       0.00613800
O       14.58075000      18.43682000      15.27534000      -0.00171000       0.00943100      -0.01046700
O       18.85609000      13.23968000      18.49296000       0.00248500       0.01006200      -0.00146900
O       14.82247000      14.06615000      15.71817000      -0.00353000      -0.00612200      -0.00184900
O       11.04231000      13.54904000      11.57017000      -0.00318000      -0.00196900       0.01026100
O       14.92204000       9.26800000      14.45880000      -0.00581600       0.00722400       0.00418400
O       18.63422000      13.32129000      11.94943000      -0.00223400       0.00994700       0.00138100
O       12.03987000      15.94380000      18.92733000      -0.00479100      -0.00547900       0.00234300
O       14.79825000      20.99080000      15.22867000      -0.00223100      -0.00176200      -0.00041000
O       19.18855000      16.78093000      18.17012000       0.00226400       0.00064800      -0.00321800
O       15.48708000      16.20350000      14.67627000      -0.00650700       0.00363900      -0.00876100
O       11.36091000      16.65655000      11.49705000       0.00189200       0.00019000       0.00029700
O       14.85792000      11.88852000      14.64065000       0.00198700      -0.00084300       0.00135100
O       18.60486000      16.81604000      11.57440000       0.00169700       0.00184600       0.00179200
O        9.82755000      16.83984000      17.04304000      -0.00083900       0.00117700       0.00037400
O       17.46640000      16.23311000      16.19884000      -0.00141200       0.00081200       0.00670600
O       13.22818000      16.46853000      13.16871000      -0.00025900      -0.00259800      -0.00204100
O       16.76585000      11.04539000      16.51802000      -0.00794300      -0.00126800       0.00360000
O       12.92578000      11.36471000      12.94003000      -0.00555900       0.00308600      -0.00096900
O       20.94058000      16.39153000      13.17309000      -0.00433300       0.00261100      -0.00408800
O        8.95735000      14.02142000      16.49754000       0.00371800      -0.00192900       0.00243900
O       16.74279000      18.72808000      16.80702000      -0.00754000       0.00283500       0.00709500
O       12.01119000      19.24767000      13.85776000       0.00543800       0.00601900      -0.00265600
O       16.85598000      13.66021000      16.92035000      -0.00561500       0.00523000       0.00520300
O       12.92200000      13.93757000      13.46380000      -0.00087200       0.00008400       0.00581000
O       20.86246000      13.36438000      13.74263000      -0.00124800       0.01278000       0.00527200
