72
Lattice="30.0 0.0 0.0 0.0 30.0 0.0 0.0 0.0 30.0" Properties=species:S:1:pos:R:3:forces:R:3 energy=-655.37267658 stress="-7.83352 0.05452 -0.01694 0.05452 -7.57523 -0.0134 -0.01694 -0.0134 -7.75474" pbc="T T T"
Zr      15.64678000      16.97025000      16.94326000      -0.00555900      -0.00314200       0.00582600
Zr      11.21049000      17.46179000      13.29799000       0.00460700       0.00191300      -0.00184800
Zr      15.09769000      12.28598000      16.83687000       0.00299600      -0.00406200       0.00329900
Zr      11.32098000      12.60493000      13.31235000      -0.00304300      -0.00365900       0.00259800
Zr      19.29999000      17.44382000      13.28562000      -0.00302300      -0.00263200      -0.00795700
Zr      19.29324000      11.97261000      13.54887000      -0.00164000      -0.00339800      -0.00075300
Zr      11.75146000      17.14864000      17.36913000      -0.00302900      -0.00147100      -0.00069100
Zr      10.52452000      12.84364000      16.43187000       0.00722000      -0.00839600      -0.00350500
Zr      18.72362000      17.81477000      16.56529000       0.00205500       0.00472800       0.00499500
Zr      15.13287000      17.22385000      12.94101000       0.00189900      -0.00985600      -0.00968300
Zr      18.50980000      12.25288000      16.70734000      -0.00314400      -0.00487200       0.00270000
Zr      14.67375000      12.67593000      12.53649000       0.00212400      -0.00436400      -0.00204700
Zr      12.52802000      14.02308000      18.51045000       0.00888200      -0.00004600       0.00170900
Zr       9.58654000      15.69030000      15.44911000      -0.00266100       0.00022100      -0.00270200
Zr      16.24061000      19.63296000      14.90861000      -0.00427700      -0.00052000       0.00261700
Zr      16.85513000      14.49186000      15.00531000       0.00543900      -0.00055800      -0.00658200
Zr      12.45327000      14.90975000      11.59813000       0.00143700       0.00598700      -0.00582200
Zr      16.50800000      10.53779000      14.16332000      -0.00276600       0.00102000      -0.00709200
Zr      13.15547000      19.78625000      15.39322000      -0.01045300      -0.00102100      -0.00260100
Zr      18.13495000      15.03074000      18.00130000       0.00140100       0.00360900      -0.00108800
Zr      13.43312000      15.32235000      15.06051000       0.00124100       0.00363400       0.00573900
Zr      13.39754000      10.45628000      14.81098000       0.00125500      -0.00321400      -0.00067600
Zr      20.41038000      15.00542000      14.57585000       0.00261300      -0.00651300       0.00360700
Zr      17.66282000      15.01011000      11.87048000       0.00107500       0.00620700       0.00296000
O       13.68057000      16.43032000      16.82355000       0.00215000      -0.00269200      -0.00206600
O        9.37843000      16.91864000      13.86689000      -0.00389600      -0.00119100      -0.00210800
O       13.58219000      10.94698000      16.68959000      -0.00184700      -0.00096300       0.00145100
O       18.40036000      15.52754000      13.77826000      -0.00397600       0.00366700      -0.00071700
O       18.34425000      10.21983000      13.43129000      -0.00282300       0.00591200      -0.00140900
O       12.32422000      19.07725000      17.05134000      -0.00013400      -0.00079600      -0.00343400
O       12.15388000      14.16575000      16.51090000       0.00440300       0.00206500       0.00100900
O       15.93494000      19.03800000      13.05004000       0.00448600      -0.00142800       0.00125100
O       19.16070000      14.30588000      16.09289000      -0.00450300      -0.00095000       0.00056500
O       16.10834000      14.10410000      13.06823000       0.00181100       0.00411400       0.00084300
O       14.28249000      13.14905000      18.48043000      -0.00131000       0.00226800       0.00264900
O       10.45202000      13.97779000      14.48286000       0.00118900       0.00128600       0.00208600
O       18.30386000      18.88925000      14.59748000      -0.00251100       0.00566100       0.00477000
O       17.64438000      12.58372000      14.57107000      -0.00288500      -0.00415600       0.00068300
O       13.98779000      13.81358000      10.98160000      -0.00216000       0.00053800      -0.00193200
O       16.32197000      16.03711000      18.49128000      -0.00204700       0.00111200      -0.00189600
O       11.59567000      16.46741000      15.20117000       0.00267800      -0.00030100      -0.00069500
O       11.14438000      11.39104000      15.03805000       0.00031000       0.00328200       0.00052900
O       20.05835000      17.04317000      15.40232000      -0.00210900       0.00042500      -0.00170200
O       15.92008000      16.25664000      11.52776000      -0.00187000       0.00523400       0.00602800
O       19.84426000      11.51306000      15.50119000       0.00438400      -0.00437000      -0.00262200
O       15.90517000      11.19176000      12.34652000       0.00105900      -0.00381400       0.00334000
O       11.06174000      12.72552000      18.36743000       0.00078000       0.00025400       0.00178500
O       14.58224000      18.43664000      15.26471000       0.00359900      -0.00414200       0.00075700
O       18.85814000      13.24068000      18.49203000       0.00382600      -0.00151300       0.00420800
O       14.82183000      14.06262000      15.71829000      -0.00427400       0.00399600      -0.00006200
O       11.04350000      13.55200000      11.57183000       0.00140800       0.00357800       0.00233400
O       14.92094000       9.26753000      14.46021000       0.00001600       0.00201100      -0.00313300
O       18.63439000      13.32356000      11.95158000       0.00216700       0.00136200      -0.00129100
O       12.04112000      15.94239000      18.92600000      -0.00037700       0.00277700      -0.00042700
O       14.79533000      20.99123000      15.22896000       0.00536000      -0.00208900      -0.00117300
O       19.18931000      16.78067000      18.16957000      -0.00090300      -0.00425000      -0.00131700
O       15.48542000      16.20048000      14.67501000      -0.00136800       0.00079100      -0.00010500
O       11.36324000      16.65638000      11.49491000       0.00251600       0.00050900      -0.00090900
O       14.85963000      11.88719000      14.63917000      -0.00129300      -0.00272000       0.00449100
O       18.60072000      16.81790000      11.57651000      -0.00266300       0.00092100       0.00132100
O        9.82717000      16.83992000      17.04285000       0.00288900       0.00267400      -0.00110500
O       17.46345000      16.23370000      16.20026000       0.00042800      -0.00087000       0.00139000
O       13.22781000      16.46768000      13.16940000       0.00196700       0.00055000       0.00042400
O       16.76537000      11.04537000      16.52179000      -0.00016600      -0.00062200      -0.00260300
O       12.92559000      11.36580000      12.93878000      -0.00322600      -0.00483600      -0.00055200
O       20.93600000      16.39050000      13.17079000       0.00116000       0.00681200      -0.00033700
O        8.95893000      14.02093000      16.49643000      -0.00537200       0.00499200       0.00155600
O       16.73954000      18.73002000      16.80881000      -0.00311200      -0.00074700      -0.00089300
O       12.01236000      19.24755000      13.85216000       0.00016500      -0.00002200      -0.00186300
O       16.85445000      13.66117000      16.92285000       0.00273600       0.00233900       0.00072700
O       12.92536000      13.93662000      13.46385000       0.00222100       0.00113100       0.00325000
O       20.86385000      13.36313000      13.74191000      -0.00353100       0.00261600       0.00390300
