72
Lattice="30.0 0.0 0.0 0.0 30.0 0.0 0.0 0.0 30.0" Properties=species:S:1:pos:R:3:forces:R:3 energy=-655.37278478 stress="-7.83236 0.08871 -0.01867 0.08871 -7.64734 0.01788 -0.01867 0.01788 -7.77241" pbc="T T T"
Zr      15.64634000      16.97016000      16.94457000       0.00487600       0.00104000      -0.00192700
Zr      11.21089000      17.46160000      13.29748000      -0.00273000      -0.00164700       0.00131500
Zr      15.09775000      12.28528000      16.83723000      -0.00204500       0.00189400      -0.00278500
Zr      11.32120000      12.60499000      13.31262000       0.00065300       0.00588600       0.00101000
Zr      19.29905000      17.44433000      13.28575000      -0.01042400       0.00518500      -0.00072900
Zr      19.29275000      11.97237000      13.54901000       0.00515300       0.00709600      -0.00071800
Zr      11.75105000      17.14839000      17.36853000       0.00632100      -0.00409900       0.00490400
Zr      10.52561000      12.84384000      16.43205000      -0.00632400       0.00745300       0.00682200
Zr      18.72331000      17.81532000      16.56594000      -0.00596300       0.00154600       0.00172000
Zr      15.13297000      17.22405000      12.94115000       0.00585900       0.00114800      -0.00207100
Zr      18.50955000      12.25229000      16.70764000       0.00285400       0.00011800      -0.00163200
Zr      14.67361000      12.67583000      12.53609000       0.00693600      -0.00594400       0.00243000
Zr      12.52911000      14.02269000      18.51113000      -0.00354400       0.00478700      -0.00275500
Zr       9.58635000      15.69020000      15.44875000       0.00088800       0.00150400      -0.00188600
Zr      16.24032000      19.63293000      14.90901000       0.00111500      -0.00196000       0.00080100
Zr      16.85512000      14.49163000      15.00523000       0.00055600       0.00245100       0.00102100
Zr      12.45411000      14.91020000      11.59795000       0.00081600       0.00551300       0.00232300
Zr      16.50764000      10.53765000      14.16247000      -0.00540900      -0.00214500      -0.00277400
Zr      13.15487000      19.78577000      15.39226000       0.00574000      -0.00054700      -0.00374600
Zr      18.13525000      15.03075000      18.00107000      -0.00034300      -0.00162800       0.00301400
Zr      13.43358000      15.32259000      15.06081000       0.00071600      -0.00012400       0.00291400
Zr      13.39738000      10.45595000      14.81083000       0.00430900      -0.00406100       0.00104400
Zr      20.40985000      15.00563000      14.57589000       0.00325100      -0.00257300      -0.00474000
Zr      17.66269000      15.01081000      11.87074000       0.00006400      -0.00657200      -0.00449200
O       13.68081000      16.43028000      16.82387000      -0.00070600      -0.00056200      -0.00184200
O        9.37841000      16.91814000      13.86609000       0.00186000      -0.00099000      -0.00169400
O       13.58165000      10.94678000      16.68967000       0.00171100      -0.00007100      -0.00001200
O       18.39943000      15.52811000      13.77823000       0.00030900       0.00394900       0.00408900
O       18.34374000      10.22047000      13.43037000       0.00066200      -0.00550800      -0.00365200
O       12.32409000      19.07691000      17.05014000      -0.00191800      -0.00043600      -0.00018800
O       12.15521000      14.16582000      16.51162000      -0.00150600      -0.00193500      -0.00074200
O       15.93695000      19.03752000      13.05020000       0.00159200      -0.00322000      -0.00244100
O       19.15982000      14.30558000      16.09234000      -0.00120600      -0.00000200      -0.00161000
O       16.10855000      14.10399000      13.06814000      -0.00358700      -0.00249400      -0.00095500
O       14.28306000      13.14866000      18.48116000       0.00653000      -0.00317800       0.00055500
O       10.45311000      13.97804000      14.48356000       0.00114100       0.00010300       0.00069400
O       18.30343000      18.89046000      14.59903000       0.00429600       0.00183500       0.00205600
O       17.64381000      12.58281000      14.57139000      -0.00435200       0.00053100      -0.00068000
O       13.98800000      13.81324000      10.98109000      -0.00034100      -0.00233400      -0.00015000
O       16.32194000      16.03732000      18.49196000       0.00240800      -0.00331200       0.00297200
O       11.59626000      16.46748000      15.20110000      -0.00455400       0.00062500      -0.00084700
O       11.14458000      11.39166000      15.03858000       0.00057700      -0.00207300      -0.00181000
O       20.05699000      17.04328000      15.40211000       0.00079200      -0.00004300      -0.00030600
O       15.91979000      16.25691000      11.52786000      -0.00164800       0.00142400       0.00260800
O       19.84443000      11.51255000      15.50093000      -0.00477600      -0.00053000       0.00334900
O       15.90492000      11.19084000      12.34608000      -0.00664300       0.00648900       0.00141200
O       11.06209000      12.72588000      18.36783000       0.00219000      -0.00183600       0.00009500
O       14.58233000      18.43605000      15.26307000      -0.00665200       0.00258800       0.00375200
O       18.85905000      13.24059000      18.49199000      -0.00006400       0.00005500      -0.00183000
O       14.82162000      14.06234000      15.71862000       0.00339200      -0.00334700       0.00216300
O       11.04361000      13.55337000      11.57268000       0.00098700      -0.00009100       0.00054500
O       14.92073000       9.26741000      14.45954000      -0.00110700      -0.00101100      -0.00125700
O       18.63511000      13.32454000      11.95175000      -0.00082600       0.00049400       0.00062700
O       12.04155000      15.94243000      18.92558000      -0.00064000       0.00002400      -0.00053200
O       14.79478000      20.99096000      15.22882000       0.00002300      -0.00196900      -0.00004400
O       19.18994000      16.78009000      18.16969000      -0.00208200      -0.00036200      -0.00424500
O       15.48489000      16.19987000      14.67499000       0.00358300      -0.00022700      -0.00119400
O       11.36417000      16.65675000      11.49431000       0.00209700       0.00007200      -0.00307400
O       14.85950000      11.88665000      14.63930000      -0.00118200       0.00004300      -0.00026400
O       18.59981000      16.81836000      11.57672000       0.00115100       0.00567300      -0.00147400
O        9.82710000      16.84036000      17.04215000      -0.00225000       0.00180200      -0.00064500
O       17.46299000      16.23397000      16.20082000       0.00162200      -0.00012900       0.00026600
O       13.22807000      16.46749000      13.16928000      -0.00193000       0.00025600      -0.00150600
O       16.76524000      11.04520000      16.52220000       0.00004500      -0.00244600       0.00100500
O       12.92505000      11.36511000      12.93871000      -0.00005300      -0.00105700      -0.00171500
O       20.93531000      16.39140000      13.17029000      -0.00520000       0.00421300       0.00641300
O        8.95896000      14.02159000      16.49643000       0.00625100      -0.00529300      -0.00017000
O       16.73877000      18.73015000      16.80946000      -0.00187300      -0.00207800       0.00129500
O       12.01240000      19.24744000      13.85051000       0.00031200       0.00219400       0.00080200
O       16.85461000      13.66129000      16.92314000      -0.00051800      -0.00390100      -0.00037900
O       12.92625000      13.93635000      13.46402000       0.00109500      -0.00138800      -0.00215500
O       20.86347000      13.36330000      13.74254000      -0.00233600       0.00513100       0.00365200
