107
Lattice="30.0 0.0 0.0 0.0 30.0 0.0 0.0 0.0 30.0" Properties=species:S:1:pos:R:3:forces:R:3 energy=-750.4106783 stress="35.11807 -0.15095 20.8976 -0.15095 -58.18822 -4.04352 20.8976 -4.04352 3.11165" pbc="T T T"
Zr      12.83820000      12.62988000      14.61471000       0.82841800       0.14072800       0.08625700
Zr      16.41851000      12.33874000      18.78843000      -2.33955800      -0.17701400      -0.15086800
Zr      13.15466000      17.95613000      14.70506000       0.38469000       0.62998700       1.10820800
Zr      16.82620000      17.67637000      18.79526000      -3.90350600      -1.06521800      -0.04576400
Zr      16.53865000      12.82573000      10.69094000      -2.93455100      -1.85353900      -1.09628500
Zr      16.89028000      17.68684000      10.60930000       0.68968400      -0.19238100       1.30487200
Zr      13.09834000      12.23614000      19.29979000       2.92678800       0.03050300       1.68026700
Zr      13.42988000      17.42607000      19.56478000       1.45083300      -1.58021500      -1.66746600
Zr      13.23215000      12.30749000      11.23111000       1.73307900       1.90182600       0.10171900
Zr      16.83876000      12.04645000      15.29720000      -0.19152900      -0.67287600      -1.23379500
Zr      13.55846000      17.64015000      11.20848000       2.32482800       0.21980100       0.20807000
Zr      17.15603000      17.38090000      15.38297000      -0.93396000      -0.34499400      -0.31414400
Zr      11.64323000      15.37060000      17.38502000       4.90026000      -0.41315200       0.60745100
Zr      14.92006000      14.79998000      21.50607000       0.28392300       2.40761100      -3.43449700
Zr      15.02094000       9.79821000      13.16860000      -1.62370300       2.16285200       0.09030000
Zr      15.03149000      15.22798000      13.33684000       0.55165300       0.56372600       0.01720400
Zr      18.49041000      14.82498000      17.40388000      -0.47213500       1.33397300      -0.18091700
Zr      15.44454000      20.48184000      13.48006000       0.94463700      -1.43220200      -0.30872600
Zr      14.57402000       9.49620000      16.49354000      -1.19148300       1.35456400       0.23754300
Zr      11.49060000      15.21755000      12.62554000       0.66358800      -1.72618300      -0.62840300
Zr      14.99773000      14.75086000      16.63477000      -1.17651100       0.42866900       0.68399100
Zr      14.98350000      20.17590000      16.85098000       1.51456000      -1.95707600      -0.18284200
Zr      15.06718000      15.21486000       8.49010000       0.42466800      -2.09402500       3.64421200
Zr      18.37317000      14.67644000      12.58023000      -4.28361100       0.85916000      -0.51988900
O       12.76327000       9.03255000      15.63420000      -0.22957400       0.00906800      -0.56815900
O       12.84595000      14.27871000      15.99775000      -0.12898000      -0.72284300       0.12818800
O       16.24676000      13.98661000      20.13073000       0.46261900      -0.27305500      -0.67997800
O       13.21552000      19.56048000      16.09558000      -0.51000500      -1.08667500      -1.33896100
O       16.47991000      19.16598000      20.27837000      -0.15114900      -0.82139000      -0.49798400
O       15.89917000       8.90734000      11.83680000       1.03480700      -1.43637900      -1.96825000
O       16.41242000      14.15377000      12.11573000      -1.08451800       0.45028200      -0.06751800
O       19.46466000      13.72466000      16.20892000       0.32428500      -0.34486500       0.11797600
O       16.65355000      19.25316000      12.20950000       0.33502300      -0.43154500      -0.09307800
O       13.42294000      10.69333000      17.78554000      -0.09769800       0.39852600       0.28255900
O       10.52917000      16.27391000      13.77723000      -0.93472700       0.88671600       0.55041600
O       13.58097000      15.84129000      17.91032000       1.19237600      -0.45894400       0.09620100
O       14.08554000      21.11034000      18.15172000      -0.99714200       1.19328100       1.71417400
O       16.79714000      10.43127000      13.91188000       0.47325100       1.15087700       1.30782900
O       13.76219000      16.02313000       9.87588000      -0.48304000       0.27660200       0.74194900
O       17.15118000      15.71192000      13.98573000      -0.04587100       0.72036400       0.13282600
O       17.22640000      20.96835000      14.36010000       0.13630800       0.13332700       0.59099200
O       11.91366000      11.45466000      15.88057000       0.22609900      -0.75428800       0.36164300
O       15.01677000      11.42544000      19.85381000      -0.34480500      -0.65965200       0.84835300
O       12.02790000      16.78503000      15.93866000      -0.03242500      -0.08739500       0.30791600
O       15.44330000      16.61058000      20.02576000       0.53202800      -0.27880300       0.49118700
O       15.11394000      11.62711000      11.72513000       0.89228000      -1.03757700       0.26486000
O       18.50339000      11.38419000      16.16098000       0.14709200       0.42080900       0.16769200
O       15.46090000      16.96350000      11.96556000      -0.31326800      -1.63323900       1.22981500
O       18.80795000      16.46279000      16.22794000      -0.13016300      -0.58157800       0.13150200
O       15.75363000      22.06435000      12.18113000      -1.45460300      -0.53064400       0.74020700
O       14.24941000       7.92488000      17.82434000       1.46072700       0.60286100      -0.84711000
O       11.19521000      13.55704000      13.76990000       0.09520000       0.46621800       0.04015200
O       14.51979000      13.05130000      18.03094000       0.48602100       1.69246300      -1.45293400
O       11.49684000      18.60861000      13.84115000      -0.18157700      -0.40812500      -0.14076500
O       14.84416000      18.30208000      18.14681000      -0.41879200       0.76249700       0.00405100
O       14.54374000      13.17044000       9.92293000      -0.00461600       0.48191200      -0.72982800
O       17.98011000      13.20810000      14.07008000      -0.21558700      -0.25824400       0.11892200
O       15.00186000      18.56905000      10.15861000       0.56739800       0.39283300      -0.54965600
O       18.07402000      18.55109000      14.10498000      -0.26923100       0.77754800      -0.67884200
O       11.33645000      11.81127000      18.73436000      -3.21517500       2.22295000      -1.06064300
O       11.49026000      16.95116000      18.93820000      -0.64318700       2.68021600       0.11761300
O       14.63119000      16.23846000      22.81833000      -0.35111400       0.69691400       0.50877700
O       11.41016000      11.96748000      10.68129000      -2.49909300       2.68951300      -0.50097300
O       14.54662000      11.10589000      14.97050000       0.39807000       0.75606500       0.27989700
O       18.20803000      11.24697000      18.91307000       1.07847400       3.74407400       0.08915100
O       11.66327000      17.11887000      10.93748000      -1.89746000       2.88198000      -0.28578300
O       14.87794000      16.30435000      15.22738000      -0.07341700       0.12671500      -1.09638400
O       18.45119000      16.20766000      19.14056000       0.09589200       2.24138900       0.26591000
O       15.12848000      21.59312000      15.29349000       0.79351300       0.15680100      -0.47749600
O       18.14008000      11.41728000      11.02774000       0.48935400       3.46210600       0.01007600
O       14.88506000      16.47777000       7.23295000      -0.53611700       2.44116500      -2.97098200
O       18.27316000      16.22049000      11.32314000      -0.13296500       0.50415600      -0.30834900
O       11.55979000      13.60456000      18.72826000      -0.38308300      -2.25969600      -0.01697400
O       15.13050000      13.53304000      22.77093000       0.65516600      -2.39653300       2.86347700
O       11.88778000      18.73497000      19.09895000      -1.12047400      -2.82091500      -0.37232400
O       14.88185000       8.39663000      14.68898000      -0.64469000      -0.41875700       0.43507500
O       11.53444000      13.81223000      10.84828000       0.01691100      -3.21832400      -0.48678500
O       15.10704000      13.69413000      14.75254000       0.14560800      -0.24872400       0.89206600
O       18.32902000      12.85977000      19.07240000       1.76727200      -2.93545500       0.21358200
O       11.80796000      18.77220000      11.07892000      -1.16247000      -3.66610700      -0.07160900
O       15.43796000      18.89710000      15.01788000      -0.39339000      -0.82592900      -0.20431400
O       18.55655000      18.09141000      19.34138000       3.90978400      -1.32744300       1.15748900
O       15.37460000      13.76237000       7.19622000       0.42110900      -0.76666300      -0.29321400
O       18.51265000      12.97060000      11.02482000       1.57280500      -2.41559400       0.40384000
O        9.76692000      14.49142000      16.76989000      -0.82872100      -9.29131400      -0.05114200
O       13.35598000      13.71287000      20.88860000      -0.97720000      -0.01671400      -0.30896900
O       13.79167000      18.81488000      20.80662000       0.44542600       1.43803700       1.13046600
O       13.21515000       8.78792000      12.90841000      -0.30557600       0.69447700       0.44541200
O       16.25309000       8.62607000      16.95483000       0.40486000      -1.53221800       1.26836600
O       13.42487000      13.71433000      12.69540000       0.77100200       1.23483100       0.53441000
O       16.82503000      13.58128000      16.94054000      -0.32834000       0.56816100       0.19134000
O       13.80847000      19.07999000      12.87097000       0.35227400      -0.04045700       0.62052400
O       17.12790000      18.98932000      17.06869000      -0.26307000       0.72193400      -0.09534900
O       16.87400000      14.04483000       9.05903000      -0.31081200      -0.17240700      -0.48989100
O       20.16503000      14.33568000      13.28505000       3.64931400      -7.09471800       1.65782100
O       17.23741000      19.14283000       9.34707000       0.10822300       0.52269500      -0.47517600
O       12.63336000      10.76118000      20.69076000       0.22800900       0.45059800      -0.43931000
O        9.82303000      15.66479000      16.71431000      -3.56907000      10.02702800      -1.71798300
O       13.07793000      15.86515000      20.96443000      -0.03814000      -0.71823100       0.55846200
O       12.88989000      11.03891000      12.85643000       0.17512100      -0.70061000       0.39562400
O       16.19727000      10.91075000      17.13051000      -0.33581300      -0.04667700      -0.67706000
O       13.17088000      16.39799000      13.06248000       0.57239900      -0.55823800      -0.16932000
O       16.57240000      16.22428000      17.24493000      -0.55603200      -1.09450000      -0.37274900
O       13.75265000      21.37450000      13.05193000      -0.13567900       1.41605700      -1.14526900
O       16.82071000      21.14467000      17.08949000       0.53785300      -1.26550000      -0.43675400
O       16.64973000      16.37306000       9.09590000       0.15280700      -0.12286500      -0.43218000
O       20.20747000      15.54042000      13.20409000       1.05103400       6.74125500       0.15475800
