107
Lattice="30.0 0.0 0.0 0.0 30.0 0.0 0.0 0.0 30.0" Properties=species:S:1:pos:R:3:forces:R:3 energy=-758.19432863 stress="21.58545 -1.19938 21.79093 -1.19938 -67.85275 -0.88058 21.79093 -0.88058 -11.85381" pbc="T T T"
Zr      12.83639000      12.62943000      14.63155000       0.81615300      -0.04303500       0.18456700
Zr      16.37500000      12.33369000      18.80807000      -2.69901800      -0.04411800      -0.51734700
Zr      13.15456000      17.96948000      14.73154000       0.30923400       0.41003500       0.92138900
Zr      16.76307000      17.65883000      18.79125000      -1.73330400      -0.18678100       0.74340500
Zr      16.47597000      12.82102000      10.67337000      -2.45324500      -1.59241200      -1.13177700
Zr      16.91415000      17.66308000      10.61732000       0.43254600       0.54144700       1.10780400
Zr      13.14551000      12.25133000      19.33339000       1.47264000      -0.68636300       1.14100300
Zr      13.45070000      17.39116000      19.55518000       1.97303600      -0.81835800      -0.78866300
Zr      13.28399000      12.34135000      11.24623000       0.40275000       0.87391800      -0.41612700
Zr      16.84149000      12.03276000      15.26835000      -0.25445300      -0.38882300      -0.95263300
Zr      13.59794000      17.64309000      11.19058000       2.75081800       0.12521500       0.38263200
Zr      17.15621000      17.37978000      15.35912000      -0.91785900      -0.23735500      -0.31225200
Zr      11.75571000      15.36775000      17.42750000       0.46427200      -0.07460500      -1.40986600
Zr      14.91211000      14.82821000      21.44451000       0.35367600       1.11197600      -1.29970100
Zr      15.00332000       9.82938000      13.16408000      -0.84963100       1.42204900      -0.63757500
Zr      15.02025000      15.23521000      13.33385000       0.47740000       0.75174100       0.40637700
Zr      18.47205000      14.83737000      17.38611000      -0.40126100       1.61427000      -0.10438500
Zr      15.44722000      20.45344000      13.46329000       1.39744800      -1.65838400      -0.01295700
Zr      14.57029000       9.52003000      16.50490000      -1.55921300       1.55202700      -0.01749300
Zr      11.51099000      15.20242000      12.62775000       0.27678300      -1.75211100      -0.08424300
Zr      14.99894000      14.75682000      16.64659000      -0.94369900       0.07939700       0.32239800
Zr      14.99943000      20.14882000      16.85474000       0.72524900      -1.41005100       0.44533300
Zr      15.08488000      15.18698000       8.56300000       0.15892100      -0.46542800       0.97309300
Zr      18.28108000      14.69165000      12.53882000      -0.09189400       0.57367800       1.46245000
O       12.77927000       9.04278000      15.61988000      -0.20448000       0.02949700      -0.66035300
O       12.84105000      14.26684000      16.01038000      -0.00378900      -0.72265200       0.20303600
O       16.26757000      13.99089000      20.13148000       0.44926800      -0.36279900      -0.61169200
O       13.21576000      19.56332000      16.08295000      -0.39351600      -0.90494500      -1.13662500
O       16.47823000      19.15981000      20.28833000      -0.31216400      -0.80610900      -0.44975300
O       15.91555000       8.88074000      11.79256000       0.27847200      -0.66769700      -0.76641200
O       16.41531000      14.16158000      12.11782000      -1.76519700      -0.14164400      -0.74253300
O       19.45182000      13.71880000      16.23039000       0.41392000      -0.55089300       0.05838300
O       16.67392000      19.23274000      12.20765000       0.46669000      -0.35340400      -0.05948000
O       13.41391000      10.70948000      17.79297000      -0.15305000       0.32275900       0.25635600
O       10.52812000      16.29081000      13.76817000      -0.57542100       0.75163700       0.11765400
O       13.57920000      15.83933000      17.91740000       1.70819600      -0.37636600       0.48936700
O       14.06849000      21.13366000      18.18821000      -0.32913400       0.51558300       0.71708600
O       16.79830000      10.42882000      13.92433000       0.33765400       0.96296400       1.04868400
O       13.74231000      16.02103000       9.87766000      -0.41471900       0.23608700       0.64539000
O       17.15226000      15.72265000      13.97541000      -0.17375000       0.74359700       0.11580900
O       17.20700000      20.96080000      14.37390000       0.05166000       0.17308600       0.71541200
O       11.93181000      11.42487000      15.89057000       0.28445100      -0.71425400       0.34449500
O       14.99487000      11.43153000      19.85607000       0.07343900      -0.87164100       1.00911200
O       12.01105000      16.76928000      15.95248000       0.15899500       0.04213900       0.32623800
O       15.44909000      16.60506000      20.04092000       0.52806400      -0.37945000       0.38665300
O       15.11427000      11.59857000      11.71534000       1.21012500      -0.89528800       0.27732200
O       18.50197000      11.41435000      16.16723000       0.24550900       0.39459900       0.34569900
O       15.44428000      16.95735000      11.97356000       0.01229100      -1.76479400       1.06924200
O       18.79808000      16.45205000      16.23078000      -0.12328600      -0.44133000      -0.04770500
O       15.71548000      22.06961000      12.18353000      -1.89146200      -0.59121400       0.84900400
O       14.28823000       7.91956000      17.82046000       1.89352300       0.64721800      -0.93129300
O       11.20461000      13.56668000      13.77112000       0.08824600       0.56477300      -0.03270100
O       14.53605000      13.06222000      18.01751000       0.35236100       1.62709700      -1.16671000
O       11.49750000      18.57787000      13.83586000      -0.27424800      -0.44096900      -0.28785100
O       14.84957000      18.31108000      18.15117000      -0.61400800       0.72685800      -0.02170700
O       14.55375000      13.16039000       9.89092000      -0.19707700       0.67935300      -0.57948200
O       17.99380000      13.21706000      14.06535000      -0.32967000      -0.45063200       0.06321800
O       15.02903000      18.55546000      10.16524000       0.56813300       0.62994700      -0.69987900
O       18.05364000      18.58272000      14.08632000      -0.35355600       0.68300300      -0.65669200
O       11.31295000      11.90483000      18.72965000      -2.14232400       3.12491800      -0.84386500
O       11.50483000      17.04843000      18.96510000      -0.88988500       2.93211400      -0.02084500
O       14.62026000      16.25403000      22.82950000      -0.09596600       0.01496500       0.10519300
O       11.38279000      12.05941000      10.66996000      -1.46325300       3.29692900      -0.07936100
O       14.55534000      11.11481000      14.99818000       0.41982100       0.72710300      -0.00147400
O       18.27652000      11.36027000      18.91494000       0.81086700       1.72159200      -0.13570700
O       11.66422000      17.21530000      10.94866000      -2.35668000       1.76697300      -0.33293700
O       14.88128000      16.30959000      15.24642000      -0.05638800       0.05891000      -1.15877600
O       18.49018000      16.26027000      19.15514000       0.03462000       2.98734200       0.47312000
O       15.15346000      21.58755000      15.31993000       0.91453900       0.03369200      -0.64265300
O       18.17957000      11.51904000      11.03810000      -0.12831700       0.60901400      -0.16063000
O       14.87863000      16.50507000       7.19502000      -0.18419200       0.33143600      -0.86800500
O       18.27525000      16.20899000      11.34342000      -0.05458500       0.87542500      -0.71407100
O       11.53057000      13.55348000      18.70911000      -0.59856700      -2.82542300       0.04369600
O       15.14048000      13.51347000      22.80140000       0.35635800      -0.61384200       1.21218300
O       11.84272000      18.67198000      19.09799000      -1.06449800      -3.28022000      -0.37191200
O       14.86139000       8.39516000      14.65893000      -0.76581400      -0.25931600       0.51808500
O       11.48190000      13.75324000      10.82464000       0.09020200      -3.46910000      -0.43544700
O       15.10323000      13.68596000      14.72638000       0.08506700      -0.06939300       1.01566300
O       18.32483000      12.75870000      19.06096000       2.28445000      -1.07057100       0.39568300
O       11.73934000      18.66409000      11.07672000      -0.93210700      -2.40089900       0.06354000
O       15.42707000      18.88771000      14.99054000      -0.40976200      -0.86429100      -0.00528800
O       18.59779000      18.03389000      19.36691000       2.02627400      -2.67417100       0.27623200
O       15.38804000      13.74360000       7.19046000       0.27374100      -0.01049600       0.20501000
O       18.51899000      12.86278000      11.00465000       1.63317200       0.17863100       0.52082900
O        9.70553000      14.43398000      16.75474000       0.07001700      -0.49111300      -0.21228300
O       13.32004000      13.70454000      20.87265000      -0.42452400       0.21397500      -0.11554900
O       13.79630000      18.81842000      20.78907000       0.44168200       1.14347100       0.85142700
O       13.20341000       8.80204000      12.92289000      -0.21276300       0.89272700       0.44463200
O       16.20631000       8.61077000      16.97337000       0.31687700      -2.04359000       1.58483600
O       13.42726000      13.71852000      12.66743000       0.83403600       1.47535700       0.77944400
O       16.81907000      13.59555000      16.92345000      -0.26709900       0.43984600       0.33794600
O       13.82104000      19.07998000      12.84380000       0.12410000      -0.22683400       0.70414200
O       17.10811000      19.01437000      17.03501000      -0.25526000       0.85578000       0.18792100
O       16.84386000      14.05644000       9.02998000      -0.03697500      -0.67269700      -0.11498000
O       20.22307000      14.34246000      13.31358000       1.30972600      -4.41488400       0.65163700
O       17.23230000      19.16302000       9.32963000      -0.03398200       0.05389100       0.00128800
O       12.62945000      10.74763000      20.69701000       0.27245100       0.60378500      -0.56862900
O        9.75583000      15.70800000      16.68045000      -1.06331500       0.84706800      -0.23673400
O       13.09404000      15.82376000      20.99646000      -0.28281700      -0.28976600       0.16687400
O       12.90908000      11.01011000      12.89502000       0.16692900      -0.49018000      -0.01597400
O       16.18606000      10.90742000      17.15603000      -0.10451300       0.14980700      -0.74019600
O       13.18142000      16.38192000      13.08003000       0.34626000      -0.48652200      -0.34509700
O       16.57582000      16.21651000      17.27167000      -0.70921500      -1.04801200      -0.59723100
O       13.80548000      21.38763000      13.03696000      -0.13629600       1.97878400      -1.50933100
O       16.83966000      21.11011000      17.07427000       0.59630000      -1.57220300      -0.38706300
O       16.67138000      16.39127000       9.09707000      -0.24445000      -0.26446300      -0.56053900
O       20.27060000      15.56121000      13.21905000       0.38624000       4.23240400       0.04247400
