107
Lattice="30.0 0.0 0.0 0.0 30.0 0.0 0.0 0.0 30.0" Properties=species:S:1:pos:R:3:forces:R:3 energy=-759.87607345 stress="22.48399 0.73336 23.64829 0.73336 -43.48212 2.49762 23.64829 2.49762 -21.48248" pbc="T T T"
Zr      12.83498000      12.62907000      14.64650000       0.75327900      -0.31293900       0.33049800
Zr      16.33589000      12.32918000      18.82543000      -3.18196300       0.13216600      -0.87054500
Zr      13.15458000      17.98146000      14.75526000       0.25482500       0.21160100       0.79334200
Zr      16.70621000      17.64304000      18.78769000      -0.30567400       0.44830700       1.33659300
Zr      16.41974000      12.81639000      10.65754000      -2.00481800      -1.24063700      -1.27052900
Zr      16.93546000      17.64199000      10.62474000       0.15480800       1.17669300       0.86071500
Zr      13.18800000      12.26480000      19.36357000       0.20696400      -1.28867000       0.66906500
Zr      13.46950000      17.35986000      19.54628000       2.56511600       0.27190900       0.29045100
Zr      13.33034000      12.37181000      11.25964000      -0.93504500      -0.12908500      -0.77286900
Zr      16.84387000      12.02046000      15.24250000      -0.24940100      -0.12817300      -0.69397600
Zr      13.63347000      17.64574000      11.17478000       3.34060000       0.04662400       0.50564900
Zr      17.15614000      17.37871000      15.33792000      -0.87901200      -0.10154200      -0.31959600
Zr      11.85654000      15.36513000      17.46528000      -2.82184700      -0.36759500      -2.78301800
Zr      14.90514000      14.85379000      21.38914000       0.56103400       0.23187400       0.33244300
Zr      14.98731000       9.85751000      13.16010000      -0.35764400       0.73659800      -0.90852400
Zr      15.01043000      15.24176000      13.33121000       0.42159000       1.00189100       0.80763000
Zr      18.45567000      14.84867000      17.37032000      -0.34550200       1.82824000      -0.05315300
Zr      15.44983000      20.42793000      13.44836000       1.81928500      -1.88351600       0.21406500
Zr      14.56669000       9.54147000      16.51502000      -1.90253400       1.75998600      -0.22288200
Zr      11.52920000      15.18859000      12.62955000      -0.10028800      -1.70908400       0.43845100
Zr      14.99973000      14.76220000      16.65723000      -0.48118800      -0.34279900      -0.13670000
Zr      15.01391000      20.12437000      16.85802000       0.12263700      -0.97463200       0.77644200
Zr      15.10067000      15.16177000       8.62847000      -0.12866700       0.57733300      -0.93623700
Zr      18.19846000      14.70533000      12.50202000       2.65682300       0.44369300       3.04986900
O       12.79338000       9.05186000      15.60705000      -0.18443200       0.02520800      -0.73925400
O       12.83668000      14.25615000      16.02159000       0.19016300      -0.69115700       0.31728300
O       16.28611000      13.99462000      20.13198000       0.50769000      -0.53762300      -0.66258000
O       13.21585000      19.56558000      16.07143000      -0.30547800      -0.74705400      -0.93458200
O       16.47671000      19.15415000      20.29703000      -0.35778800      -0.75491500      -0.42385600
O       15.93031000       8.85683000      11.75289000      -0.22011700      -0.12112900       0.03952500
O       16.41760000      14.16860000      12.11965000      -3.06144600      -0.88991100      -1.46413100
O       19.44053000      13.71352000      16.24943000       0.50616100      -0.75310900       0.06267800
O       16.69204000      19.21454000      12.20599000       0.60754500      -0.25156000      -0.01510100
O       13.40589000      10.72387000      17.79962000      -0.22752000       0.23236100       0.22694300
O       10.52697000      16.30600000      13.76028000      -0.23874400       0.62088100      -0.30425400
O       13.57792000      15.83749000      17.92369000       3.13795100       0.01853000       1.07254400
O       14.05315000      21.15461000      18.22094000       0.12637800       0.06170900       0.03559900
O       16.79944000      10.42693000      13.93568000       0.22014300       0.79778400       0.75360300
O       13.72459000      16.01924000       9.87942000      -0.43450100       0.18961700       0.67071600
O       17.15321000      15.73232000      13.96629000      -0.34471800       0.78435400       0.10428500
O       17.18985000      20.95414000      14.38627000      -0.04114100       0.23507400       0.81705300
O       11.94795000      11.39830000      15.89952000       0.34223600      -0.62470100       0.30725300
O       14.97539000      11.43676000      19.85828000       0.62028100      -1.02971500       1.15676500
O       11.99611000      16.75531000      15.96480000       0.33064900       0.13758500       0.48156100
O       15.45434000      16.60010000      20.05447000       0.37621400      -0.48466800       0.22260700
O       15.11478000      11.57303000      11.70673000       1.46964900      -0.59707700       0.10697100
O       18.50074000      11.44116000      16.17282000       0.33407000       0.39656800       0.50583600
O       15.42948000      16.95150000      11.98094000       0.25859800      -1.91888800       0.92610100
O       18.78930000      16.44241000      16.23334000      -0.12662200      -0.24243900      -0.23548700
O       15.68133000      22.07413000      12.18584000      -2.28554400      -0.67662900       0.96862700
O       14.32297000       7.91499000      17.81681000       2.29432500       0.71547400      -1.02354900
O       11.21296000      13.57534000      13.77220000       0.13142900       0.61806100      -0.12179200
O       14.55057000      13.07231000      18.00526000       0.24634200       1.62037500      -0.86935500
O       11.49804000      18.55054000      13.83114000      -0.36177400      -0.48337700      -0.44251000
O       14.85426000      18.31922000      18.15503000      -0.86461200       0.51582700      -0.06989000
O       14.56262000      13.15161000       9.86239000      -0.28842500       0.76696600      -0.34315300
O       18.00587000      13.22493000      14.06118000      -0.40401700      -0.62797200      -0.08977000
O       15.05323000      18.54352000      10.17097000       0.49534300       0.80204500      -0.80147400
O       18.03553000      18.61092000      14.06963000      -0.44392900       0.58019300      -0.64396700
O       11.29136000      11.98825000      18.72521000      -1.38025900       3.00491000      -0.61319500
O       11.51759000      17.13523000      18.98895000      -1.37881300       2.08712100      -0.32812900
O       14.61048000      16.26799000      22.83951000       0.06486700      -0.44273200      -0.22056000
O       11.35794000      12.14150000      10.65980000      -0.76275900       3.04610000       0.13070600
O       14.56317000      11.12290000      15.02276000       0.42983400       0.72843200      -0.27592500
O       18.33746000      11.46153000      18.91662000       0.80491900      -6.48078000      -1.05413100
O       11.66460000      17.30142000      10.95849000      -2.76156300      -3.49314600      -0.73315200
O       14.88421000      16.31427000      15.26303000      -0.04664700      -0.02806100      -1.17748800
O       18.52474000      16.30743000      19.16813000       0.04099100       3.33766100       0.57923000
O       15.17578000      21.58265000      15.34322000       1.00710200      -0.04331000      -0.77218300
O       18.21468000      11.61002000      11.04729000      -2.44546500      -8.76506300       0.06752600
O       14.87280000      16.52984000       7.16071000       0.03563700      -0.78852200       0.29620900
O       18.27708000      16.19894000      11.36130000       0.13349400       1.42080400      -1.19297700
O       11.50460000      13.50769000      18.69214000      -0.68281800      -2.48620000      -0.00942700
O       15.14949000      13.49556000      22.82909000       0.16353100       0.45385200       0.19699900
O       11.80254000      18.61549000      19.09705000      -0.69336400      -2.61062600      -0.19071800
O       14.84311000       8.39375000      14.63242000      -0.85106500      -0.15488300       0.55199800
O       11.43536000      13.70021000      10.80359000       0.20889500      -3.01324700      -0.29971300
O       15.09989000      13.67866000      14.70341000       0.01809100       0.08221400       1.08078500
O       18.32155000      12.66846000      19.05088000       2.59656400       6.92665200       1.25526900
O       11.67828000      18.56743000      11.07476000      -0.76345500       3.05754400       0.55409600
O       15.41733000      18.87920000      14.96627000      -0.41517000      -0.91679900       0.19652500
O       18.63526000      17.98262000      19.38980000       0.80853600      -3.35449100      -0.24254600
O       15.40004000      13.72679000       7.18529000       0.13919600       0.51125600       0.56007200
O       18.52499000      12.76669000      10.98687000       3.79259300       9.12747800       0.24339900
O        9.65095000      14.38077000      16.74130000       0.30770300       3.63242400      -0.32509900
O       13.28797000      13.69716000      20.85845000      -0.01204000       0.41350700       0.02521900
O       13.80050000      18.82190000      20.77379000       0.34382400       0.76137000       0.49286900
O       13.19294000       8.81471000      12.93582000      -0.10396300       1.06512300       0.46183800
O       16.16497000       8.59684000      16.99010000       0.19140600      -2.53547200       1.87012400
O       13.42956000      13.72253000      12.64278000       0.93042600       1.76784200       1.02263000
O       16.81371000      13.60833000      16.90836000      -0.22353300       0.34260300       0.43681000
O       13.83225000      19.07996000      12.81988000      -0.11325600      -0.41321800       0.68155100
O       17.09052000      19.03674000      17.00516000      -0.22547300       1.04756100       0.39206700
O       16.81709000      14.06668000       9.00414000       0.39115800      -1.20888600       0.29439700
O       20.27536000      14.34668000      13.33926000       0.36910100      -2.34372100       0.17768200
O       17.22780000      19.18103000       9.31407000      -0.12466700      -0.30948300       0.38533800
O       12.62605000      10.73574000      20.70244000       0.20790700       0.73978400      -0.69574000
O        9.69545000      15.74879000      16.65004000      -0.18383200      -3.48435300       0.34920700
O       13.10831000      15.78691000      21.02497000      -0.61072500       0.19978200      -0.20415300
O       12.92612000      10.98444000      12.92931000       0.14550500      -0.29492000      -0.31071800
O       16.17605000      10.90447000      17.17847000       0.10206700       0.33100600      -0.70162900
O       13.19090000      16.36755000      13.09554000       0.11072800      -0.45136700      -0.47618300
O       16.57871000      16.20936000      17.29526000      -0.87269100      -1.06053900      -0.81671900
O       13.85223000      21.39962000      13.02342000      -0.10695500       2.52742800      -1.82394500
O       16.85657000      21.07919000      17.06068000       0.65595900      -1.85975000      -0.34548500
O       16.69059000      16.40737000       9.09800000      -0.57201500      -0.39793200      -0.58717200
O       20.32679000      15.58133000      13.23234000       0.16276500       2.25012300       0.06601200
