107
Lattice="30.0 0.0 0.0 0.0 30.0 0.0 0.0 0.0 30.0" Properties=species:S:1:pos:R:3:forces:R:3 energy=-775.75600295 stress="-11.82292 1.57758 -3.86343 1.57758 -31.62861 -11.16359 -3.86343 -11.16359 -21.90409" pbc="T T T"
Zr      12.94201000      12.56756000      14.72459000       0.32073500      -0.29050200       0.36925600
Zr      16.14348000      12.35411000      18.74663000       1.88598000       0.22291700      -0.28955000
Zr      13.19951000      18.00310000      14.84803000       0.07665400      -0.93570000      -1.50782200
Zr      16.55606000      17.70002000      18.91553000       2.76070600       0.55803500      -0.35351400
Zr      16.34751000      12.69568000      10.55453000       1.54715200       1.45309800       0.37646600
Zr      17.00761000      17.70867000      10.72136000       0.48126000      -0.63996900      -0.86857000
Zr      13.26223000      12.11161000      19.49538000      -1.79043900       0.73800600      -0.96902400
Zr      13.75657000      17.33914000      19.59202000      -3.64136500      -0.00733800       0.92313800
Zr      13.35374000      12.42645000      11.27035000      -1.10216000       0.34058000      -0.42464000
Zr      16.80145000      12.01404000      15.15478000      -0.33200000       0.81868900       1.24663900
Zr      13.91823000      17.63714000      11.20516000      -2.42577000      -0.28912100       0.08765500
Zr      17.03601000      17.36485000      15.24901000      -0.39675800       0.17177700       0.13413200
Zr      11.87494000      15.37944000      17.21010000      -0.66277200      -0.75375500       2.53473700
Zr      14.95265000      14.88402000      21.35251000      -0.18505100      -1.64512100       0.96236300
Zr      14.95183000       9.95916000      13.07701000       1.55051500      -1.21175800       0.51807300
Zr      15.03715000      15.33046000      13.39921000      -0.78940100      -1.92953500      -0.53797200
Zr      18.37157000      14.99529000      17.32767000      -0.33762400      -0.89075000       0.21581900
Zr      15.56987000      20.20898000      13.44532000      -0.49584700      -1.25446600       1.41706300
Zr      14.43577000       9.74184000      16.51005000      -0.02398600       1.50804400      -1.13510500
Zr      11.57359000      15.05147000      12.68063000       0.44924200       1.27935000      -1.20593500
Zr      14.98028000      14.73618000      16.65231000       0.49499000       0.38627700       0.17047800
Zr      15.00612000      20.00284000      16.93342000      -2.40721400       1.76516000      -0.34434200
Zr      15.10350000      15.21263000       8.64201000      -0.76977800       0.64239100       0.10423300
Zr      18.28854000      14.75331000      12.71031000      -0.66783800      -0.48465400      -0.43521300
O       12.80734000       9.07083000      15.47913000       1.12708400       0.02569200      -0.47696900
O       12.82804000      14.15078000      16.08383000       0.43383300      -1.00574100      -0.93892300
O       16.36162000      13.94732000      20.06610000      -0.04168400      -0.29457200      -0.09689800
O       13.18758000      19.50909000      15.96981000       0.13164200       0.96658900       0.82159600
O       16.43241000      19.05085000      20.25886000      -0.10323500       0.30331400       0.25644000
O       15.91291000       8.81006000      11.70617000      -0.70889700       0.35395900       0.72245500
O       16.19297000      14.11129000      11.97446000       1.58850300      -0.02593300      -0.12745700
O       19.44668000      13.61168000      16.31180000      -0.69059200      -1.11697200       0.61453100
O       16.81509000      19.15671000      12.21238000       0.66474200       0.43093900       0.86578900
O       13.35104000      10.78164000      17.84875000       0.00525800      -0.47252200      -0.16845900
O       10.51978000      16.41458000      13.69208000       0.56674500       1.56911200      -0.22906600
O       13.77022000      15.80000000      18.02785000      -1.46614000      -0.16583400      -0.37988400
O       14.05672000      21.18599000      18.26358000       0.76701200      -0.56673800      -0.79833200
O       16.81252000      10.48426000      14.01648000      -0.23000800      -0.88400300      -0.73301500
O       13.65271000      16.02758000       9.95175000       0.28289400       0.16307600       0.15539300
O       17.12236000      15.84928000      13.97114000       0.45874800      -0.27537900      -0.34871100
O       17.12881000      20.98327000      14.52773000      -2.12530000       0.79471200       0.98535500
O       12.02864000      11.28753000      15.93939000       0.49359900      -0.13769700      -0.20415400
O       14.99883000      11.32889000      19.99990000       1.27188600       0.43360300      -0.52389100
O       12.00359000      16.74156000      16.06795000       0.67986800       2.63437800      -2.01565900
O       15.51248000      16.53737000      20.09633000       0.45763500      -0.34571700       0.06410100
O       15.19782000      11.47133000      11.68655000      -0.81888900       0.67162200      -0.87282500
O       18.55342000      11.55928000      16.25234000       0.66851100       1.54695800       0.51967500
O       15.46682000      16.74376000      12.07147000       1.12132000       1.14687200      -1.46591000
O       18.76554000      16.43030000      16.19083000      -0.04250000       0.94594700      -0.93445600
O       15.24365000      21.98403000      12.32608000       2.77542400       1.87841900      -2.37294000
O       14.76486000       8.00653000      17.67141000      -1.67437700      -1.64769700       1.87383300
O       11.23545000      13.62056000      13.78775000       0.08484400      -1.38155100       1.27034800
O       14.55301000      13.24580000      17.92513000      -0.45696900      -1.21135800       1.40671800
O       11.44299000      18.42065000      13.75991000      -0.77914200      -1.69880800      -0.39736700
O       14.77556000      18.36691000      18.16036000       0.31850900      -0.62639100      -0.21893600
O       14.45292000      13.20327000       9.77626000      -0.57879900      -0.76665500       0.98445800
O       17.97731000      13.18352000      14.03111000      -0.06322200       0.81651500      -1.04513000
O       15.16200000      18.62571000      10.08486000       0.19383600       0.23175400       0.20069700
O       17.93214000      18.72684000      13.96632000      -0.72826000      -0.16140000      -0.15424300
O       11.04499000      12.18802000      18.65849000       0.23647500       0.38388700       0.19131700
O       11.34383000      17.23079000      18.96930000       0.76089000       1.25238600       0.16017700
O       14.60506000      16.23070000      22.82929000       0.16604800      -0.56508200      -0.19282100
O       11.18701000      12.27541000      10.61404000       0.82411600       0.01241400       0.25989800
O       14.61744000      11.23397000      15.01458000      -0.25420100       0.11419200      -0.43000200
O       18.49837000      11.46522000      18.84544000      -0.13672600       1.26591800      -0.38980900
O       11.42411000      17.19364000      10.90659000       0.52087000       4.33612000       0.61912200
O       14.88044000      16.33484000      15.16279000      -0.19052500       0.47567300       0.38911300
O       18.57364000      16.52326000      19.21940000      -0.57468800      -3.23688000      -0.64731300
O       15.36637000      21.53752000      15.27336000       1.73451800      -1.22068500      -1.51113500
O       18.18229000      11.57229000      11.03092000       0.41041700       1.26454000      -0.14336200
O       14.86720000      16.47770000       7.13846000       0.01880900      -0.38702900       0.15078100
O       18.28916000      16.29591000      11.29249000       0.45014500      -1.08324500       0.83794300
O       11.41349000      13.44584000      18.64136000      -0.46291600      -0.31045100      -0.16149600
O       15.18437000      13.54472000      22.88481000       0.02833500       1.15574200      -0.48281200
O       11.70592000      18.52088000      19.09766000      -0.16138400      -1.59257500       0.02432100
O       14.68562000       8.39807000      14.65222000      -1.15511200       0.77734000       0.91870500
O       11.40681000      13.61888000      10.77417000       0.36865000       0.23978000       0.35707500
O       15.08892000      13.66833000      14.80222000       0.00886700       0.01954500       0.22468000
O       18.54097000      12.74384000      19.10811000      -0.03506500      -0.92830800      -0.14176400
O       11.50437000      18.60782000      11.13863000       0.08510500      -4.72597000      -0.18474400
O       15.36638000      18.74064000      14.96278000       0.62246900      -0.22090300       0.42312400
O       18.83299000      17.74909000      19.44100000       0.27305000       2.93885200       0.35418100
O       15.45603000      13.75522000       7.25814000       0.92320100       0.04495200       0.90536300
O       18.67964000      12.87805000      11.01289000      -1.09487300      -0.83697200       0.18452800
O        9.59498000      14.41553000      16.70292000       0.34241300       0.73452700       0.12152600
O       13.23846000      13.73860000      20.82789000       0.44281300       0.94449200       0.04160700
O       13.84749000      18.89562000      20.78645000       0.17216000       0.03016800      -0.13151500
O       13.16141000       8.98250000      13.01666000      -0.56431500       1.62454500      -0.05777900
O       15.92479000       8.28470000      17.25111000       1.67389800       0.22313200      -0.91762300
O       13.52144000      13.86454000      12.66225000      -0.19952500      -1.12247600      -0.24608400
O       16.79675000      13.68303000      16.92789000       0.53714200      -0.29419500       0.10637100
O       13.83805000      19.02127000      12.86599000       0.21918100      -0.19442800       0.32476600
O       17.04116000      19.25371000      17.01582000       0.69550500       1.10928600       0.54403600
O       16.80105000      13.94463000       8.95138000      -0.30847600      -0.80286800      -1.06607300
O       20.40435000      14.36225000      13.37314000      -0.02551600      -3.86557200       0.05042100
O       17.20264000      19.17405000       9.33477000      -0.33893000      -0.19603000       0.30095700
O       12.62817000      10.80170000      20.63280000      -1.15112500      -1.18593600       1.09241100
O        9.56466000      15.70896000      16.62149000       0.01291500      -0.76302400       0.17977500
O       13.06902000      15.75631000      21.03635000       0.27256700      -0.14851100      -0.37017400
O       12.96933000      10.92218000      12.92173000      -0.21797000      -0.30938200      -0.72265600
O       16.16603000      10.94232000      17.12762000      -0.07978100       0.13557800      -0.26900200
O       13.19247000      16.28776000      13.06927000      -0.16907600       0.34387200       0.03535000
O       16.49776000      16.11572000      17.26096000       0.29528600       1.20998800      -0.13061200
O       14.11094000      21.70858000      12.76959000      -2.61432600      -0.50568300       1.44840900
O       16.98427000      20.72780000      17.00412000       0.92367500      -2.14764200       0.29310400
O       16.65831000      16.40915000       9.05515000      -0.06394800       0.50945200       0.60595300
O       20.40820000      15.59161000      13.27910000      -0.34415300       3.81732000      -0.17476900
