107
Lattice="30.0 0.0 0.0 0.0 30.0 0.0 0.0 0.0 30.0" Properties=species:S:1:pos:R:3:forces:R:3 energy=-775.85818947 stress="-17.79123 1.3344 -0.46742 1.3344 -32.67464 -9.04459 -0.46742 -9.04459 -23.85379" pbc="T T T"
Zr      12.93473000      12.57262000      14.71920000       0.41681700      -0.35902700       0.39565100
Zr      16.14626000      12.35173000      18.75228000       1.98052100       0.23690500      -0.34487400
Zr      13.19635000      18.00340000      14.84494000       0.12845600      -0.88879000      -1.39059600
Zr      16.56370000      17.69375000      18.90821000       2.28665000       0.74809400      -0.24025700
Zr      16.34165000      12.70048000      10.55837000       1.78975000       1.33999900       0.36368500
Zr      17.00306000      17.70514000      10.71695000       0.46762200      -0.53027800      -0.76670700
Zr      13.26136000      12.12235000      19.48856000      -1.76567700       0.43969300      -0.81799400
Zr      13.74256000      17.33852000      19.58667000      -3.28503800       0.08320600       0.91189600
Zr      13.35323000      12.42399000      11.26778000      -1.02607700       0.27603600      -0.27812600
Zr      16.80473000      12.01261000      15.15756000      -0.35990500       0.81153500       1.17951300
Zr      13.90800000      17.63840000      11.20303000      -2.38918000      -0.26962800       0.12026500
Zr      17.04404000      17.36530000      15.25475000      -0.49529800       0.16940300       0.02766900
Zr      11.87354000      15.37697000      17.22626000      -0.53360100      -0.43333200       1.96567100
Zr      14.94986000      14.88569000      21.35111000      -0.16005600      -1.60485100       1.02125200
Zr      14.95146000       9.95592000      13.08077000       1.46253800      -1.15326100       0.48705800
Zr      15.03613000      15.32707000      13.39555000      -0.70739200      -1.72750700      -0.45357000
Zr      18.37709000      14.99044000      17.33054000      -0.36573400      -0.97801600       0.12013600
Zr      15.56575000      20.22086000      13.44478000      -0.58368900      -1.04466200       1.20641600
Zr      14.44060000       9.73081000      16.51093000       0.11624700       1.26797200      -0.97332900
Zr      11.57044000      15.05550000      12.67795000       0.45107000       1.32148600      -1.09514300
Zr      14.97941000      14.73803000      16.65354000       0.51657300       0.29816000       0.09546200
Zr      15.00999000      20.00741000      16.92959000      -2.24635000       1.59152100      -0.32350200
Zr      15.10456000      15.20690000       8.64361000      -0.73248500       0.73875800      -0.03766600
Zr      18.28231000      14.75174000      12.69873000      -0.49105000      -0.44814800      -0.33342400
O       12.80581000       9.06977000      15.48765000       1.00874700       0.02346400      -0.54477600
O       12.82882000      14.15763000      16.08036000       0.35510000      -0.95971300      -0.81489500
O       16.35769000      13.95021000      20.06985000      -0.02810800      -0.28000900      -0.10894700
O       13.18890000      19.51091000      15.97417000       0.11053300       0.89212900       0.75324400
O       16.43494000      19.05721000      20.26145000      -0.09292500       0.14966700       0.13914100
O       15.91551000       8.81156000      11.70685000      -0.71237900       0.35968700       0.72534200
O       16.20309000      14.11460000      11.98331000       1.48518000      -0.02886600      -0.17719000
O       19.44760000      13.61838000      16.30708000      -0.66587200      -1.03346400       0.62042700
O       16.80670000      19.15966000      12.21125000       0.71343900       0.34830400       0.79063600
O       13.35492000      10.77834000      17.84549000      -0.08156600      -0.36342100      -0.07402600
O       10.51888000      16.40739000      13.69720000       0.54247200       1.45468700      -0.26820600
O       13.76276000      15.80289000      18.02214000      -1.38846500      -0.21041900      -0.31865200
O       14.05506000      21.18542000      18.26299000       0.73248200      -0.53444500      -0.76507300
O       16.81247000      10.48260000      14.01346000      -0.22866700      -0.83810600      -0.69885200
O       13.65637000      16.02752000       9.94772000       0.25777000       0.11024800       0.14049500
O       17.12392000      15.84212000      13.97063000       0.40578600      -0.15808200      -0.27803100
O       17.13415000      20.98061000      14.51801000      -1.96147200       0.76900400       1.01368400
O       12.02326000      11.29352000      15.93765000       0.49624800      -0.14053700      -0.18814000
O       14.99639000      11.33516000      19.99151000       1.19396800       0.35218700      -0.40617000
O       12.00270000      16.74153000      16.06149000       0.61032200       2.21534200      -1.61950000
O       15.50876000      16.54116000      20.09450000       0.45290400      -0.31389300       0.02615400
O       15.19593000      11.47603000      11.68893000      -0.82580700       0.61080900      -0.82669600
O       18.54942000      11.55100000      16.24687000       0.63792100       1.45198900       0.52966100
O       15.46246000      16.75492000      12.06795000       1.11735200       0.94804300      -1.32079100
O       18.76657000      16.42900000      16.19457000      -0.01913800       0.93529700      -0.88762200
O       15.27577000      21.99036000      12.31645000      -0.14252300       1.02893300      -1.12428700
O       14.73231000       8.00029000      17.68114000       0.88067300      -0.90862100       0.84844900
O       11.23437000      13.62023000      13.78524000       0.06854000      -1.33392000       1.21803300
O       14.55510000      13.23724000      17.92734000      -0.51400300      -1.07183000       1.32683300
O       11.44712000      18.42976000      13.76482000      -0.74262100      -1.59799900      -0.41581600
O       14.77976000      18.36581000      18.15991000       0.29166700      -0.63241200      -0.16481000
O       14.46277000      13.20123000       9.78020000      -0.68383100      -0.70772600       0.90925200
O       17.97928000      13.18526000      14.03406000      -0.08999300       0.72257900      -0.99445600
O       15.15533000      18.62009000      10.09023000       0.23641600       0.27477000       0.11814800
O       17.93928000      18.72039000      13.97233000      -0.73806200      -0.10244600      -0.18298700
O       11.06101000      12.18995000      18.66161000      -0.02151000      -0.33859400       0.18551400
O       11.35551000      17.23625000      18.97168000       0.58842200       0.75898800       0.08844300
O       14.60492000      16.23411000      22.83054000       0.16883400      -0.57610300      -0.21242400
O       11.19745000      12.28284000      10.61809000       0.62306500      -0.62383100       0.14203500
O       14.61471000      11.22684000      15.01649000      -0.22396400       0.21029800      -0.47651300
O       18.49027000      11.46059000      18.84987000      -0.12884100       1.32225600      -0.38029400
O       11.43570000      17.19962000      10.90931000       0.49726800       4.14449000       0.57179000
O       14.88083000      16.33302000      15.16846000      -0.17006400       0.45149100       0.28473500
O       18.57336000      16.53362000      19.22002000      -0.73947900      -4.54320900      -0.85386300
O       15.35320000      21.54188000      15.27917000       1.71348700      -1.18934500      -1.43822200
O       18.18234000      11.56448000      11.03266000       0.41703900       1.53043500      -0.17496300
O       14.86722000      16.48243000       7.13812000       0.03270300      -0.45810900       0.22474000
O       18.28821000      16.29163000      11.29558000       0.40596100      -0.99611300       0.75929900
O       11.41696000      13.43548000      18.64509000      -0.27675900       0.45450300      -0.19541400
O       15.18256000      13.53909000      22.88355000       0.02605100       1.17713800      -0.50763700
O       11.70894000      18.51568000      19.09649000      -0.05634000      -1.08068900       0.07349000
O       14.69638000       8.39651000      14.65045000      -1.17190600       0.75161200       0.82287000
O       11.40654000      13.60833000      10.77376000       0.43588700       0.85707800       0.40841800
O       15.08992000      13.66894000      14.79553000      -0.01857200       0.01526600       0.30687500
O       18.53028000      12.74370000      19.10548000      -0.02647600      -0.98251300      -0.13511200
O       11.51338000      18.60571000      11.13432000       0.08121600      -4.52148400      -0.14095300
O       15.36857000      18.74968000      14.96175000       0.56627500      -0.33643000       0.45126200
O       18.81910000      17.74047000      19.43484000       0.59655600       4.25137600       0.62954700
O       15.45198000      13.75285000       7.25245000       0.86469000       0.09669200       0.89474200
O       18.67640000      12.88050000      11.01092000      -1.16563600      -1.05863000       0.20259700
O        9.59735000      14.41843000      16.70437000       0.34479500       0.47691700       0.13153200
O       13.24024000      13.73526000      20.82971000       0.43023300       0.88207900       0.02521800
O       13.84476000      18.89241000      20.78666000       0.18357200       0.01154000      -0.14541000
O       13.16328000       8.97111000      13.01173000      -0.49958500       1.56187600       0.00681000
O       15.94755000       8.30418000      17.23417000      -0.92621100      -0.39842600       0.04239400
O       13.51665000      13.85866000      12.66260000      -0.16452900      -1.04040800      -0.26848800
O       16.79671000      13.67842000      16.92659000       0.53147300      -0.19951100       0.11785200
O       13.83809000      19.02551000      12.86263000       0.14314200      -0.26953400       0.36129000
O       17.04337000      19.23773000      17.01384000       0.59863100       1.57703500       0.55806100
O       16.80177000      13.95306000       8.95555000      -0.25204200      -0.83413900      -0.99472400
O       20.39816000      14.35080000      13.37284000      -0.06854800      -2.38785500      -0.05912200
O       17.20443000      19.17519000       9.33274000      -0.31809700      -0.21612000       0.31392700
O       12.62909000      10.79783000      20.63676000      -1.02161400      -0.94785300       0.87480700
O        9.57138000      15.70649000      16.62287000       0.00202200      -0.50715100       0.17010000
O       13.07148000      15.75689000      21.03698000       0.22584800      -0.07277200      -0.38158500
O       12.96714000      10.92486000      12.92420000      -0.19120100      -0.23795300      -0.75097000
O       16.16642000      10.93951000      17.13110000      -0.04264700       0.19591200      -0.29230700
O       13.19374000      16.29235000      13.07094000      -0.21994700       0.25705300       0.01602500
O       16.50202000      16.11922000      17.26268000       0.25611200       1.13000300      -0.09979900
O       14.08729000      21.68918000      12.78629000       0.33764900       0.22270700       0.26485000
O       16.97550000      20.75321000      17.00687000       0.95407200      -2.64226000       0.28538200
O       16.66077000      16.40843000       9.05663000      -0.10688100       0.47394500       0.56237300
O       20.40529000      15.60185000      13.27589000      -0.37095800       2.33183700      -0.08824100
