107
Lattice="30.0 0.0 0.0 0.0 30.0 0.0 0.0 0.0 30.0" Properties=species:S:1:pos:R:3:forces:R:3 energy=-796.0617813 stress="-19.7525 -0.46391 8.08462 -0.46391 -32.03019 12.73569 8.08462 12.73569 -20.91449" pbc="T T T"
Zr      12.94673000      12.56195000      14.78658000      -0.00838300       0.36471500       0.34045000
Zr      16.35122000      12.34284000      18.73532000      -0.73705800       0.22718000       0.26616400
Zr      13.26587000      17.92735000      14.75108000       0.72300700      -0.12385200       0.85370400
Zr      16.75886000      17.69400000      18.97972000      -1.78844900       0.30999900       0.29582300
Zr      16.41797000      12.77169000      10.58433000      -0.49510200      -0.40532700       0.23462100
Zr      17.04820000      17.57987000      10.68374000      -0.21974600      -0.11894600       0.64026200
Zr      13.09051000      12.07730000      19.40803000       1.14413700      -0.53978400       0.18939900
Zr      13.51898000      17.35009000      19.67113000       1.67466200       0.01883500      -0.91112500
Zr      13.26251000      12.40180000      11.16404000       0.22523700       0.28624800       0.36219200
Zr      16.76554000      12.08475000      15.21038000      -0.92572600       0.24666500      -0.82106400
Zr      13.74509000      17.61864000      11.18149000       0.58736200       0.10880200      -0.22477600
Zr      16.95964000      17.28564000      15.22408000      -0.47907000      -0.07984500      -0.01476800
Zr      11.81923000      15.42935000      17.21769000      -0.57815400       0.15753700      -0.66488700
Zr      15.00538000      14.77304000      21.33811000       0.28355500       0.37167100      -0.36695000
Zr      15.20396000       9.87846000      13.06529000      -0.24344900       0.50412600      -0.60199500
Zr      15.03059000      15.17751000      13.28534000       0.26111700       0.75970300       0.38405800
Zr      18.34549000      15.09597000      17.30689000      -0.77451100       0.61317600       0.57484100
Zr      15.40676000      20.00148000      13.45780000       0.88981000       1.55277600       0.19915300
Zr      14.52832000       9.95043000      16.49354000       0.22831900       0.68041100       1.37641800
Zr      11.61922000      14.97804000      12.66029000       0.72852300      -0.48257200      -0.80117100
Zr      14.97010000      14.75721000      16.75072000      -0.64848500      -0.57062700       0.26522000
Zr      14.71224000      20.10351000      16.94204000       0.50249400      -0.74513700       0.82009600
Zr      15.01520000      15.36644000       8.69397000      -0.29779300       0.43865200       0.12084200
Zr      18.32265000      14.70246000      12.69642000       0.80487800      -0.22135800       0.16382000
O       13.09132000       8.95432000      15.27065000      -0.21070600      -1.01191900      -0.64804600
O       12.84740000      14.11801000      16.07518000       0.09059900       0.49539100       0.33904900
O       16.37766000      13.90953000      20.05120000       0.30141600       0.05882900      -0.01021700
O       13.10968000      19.55183000      15.91503000      -0.06785800      -0.25236600      -0.69701200
O       16.37728000      19.09009000      20.31233000      -0.43014500      -0.03530800       0.18274100
O       15.82200000       8.78482000      11.76405000       0.09751500      -0.68906000      -0.38167200
O       16.39118000      14.18041000      11.98167000      -0.81499200      -0.23790900      -0.67648900
O       19.27082000      13.20876000      16.45578000       1.32831400       2.06100900       1.06620100
O       17.05563000      19.17405000      12.50959000       0.84117600      -0.69787400       0.76022200
O       13.31220000      10.69731000      17.87131000      -0.22010700      -0.40555700       0.34391100
O       10.68342000      16.80194000      13.56661000      -0.60198300      -0.90011100      -1.06038900
O       13.57542000      15.76148000      18.00386000       0.63382500       0.20550100       0.40148300
O       14.12160000      21.22706000      18.25800000      -0.01672800       0.28512300      -0.04576200
O       16.83009000      10.46502000      14.03731000       0.51162000       0.16351600       0.49641200
O       13.64750000      16.05354000      10.00800000      -0.28290000      -0.14029100      -0.06862100
O       17.10651000      15.82088000      13.93596000      -0.31867900      -0.12065200      -0.03613400
O       16.93237000      21.22084000      14.75632000      -2.19457700       0.38986500       0.51114700
O       12.12855000      11.25595000      15.91860000       0.15498900       0.30684500      -0.20477500
O       15.09684000      11.42845000      19.89375000      -0.63844600      -0.20317700       0.16412400
O       12.07912000      16.88782000      15.97986000      -0.23303700      -0.36462100      -0.13459900
O       15.55441000      16.52448000      20.06300000      -0.43218900      -0.29421000       0.17701300
O       15.12133000      11.54375000      11.58445000       0.71351100      -0.50793800       0.48891400
O       18.76959000      12.05046000      16.37360000      -0.44718400      -1.91299000       0.06672000
O       15.52247000      16.80402000      11.92742000      -0.43183100      -0.45328100       0.57481300
O       18.73081000      16.47989000      16.09307000       0.42813800      -0.22022000      -0.40811600
O       15.24037000      22.10070000      12.14275000      -0.13737200      -0.66075100       0.32109800
O       14.80164000       7.86662000      17.85440000       0.07881100       0.32896800      -0.05060100
O       11.28846000      13.59827000      13.84534000      -0.51106100       0.02477400       0.45049400
O       14.52034000      13.17410000      18.07778000       0.37814100       0.78049100      -0.70789300
O       11.21316000      17.97782000      13.64380000       0.11590000       0.96652700      -0.09203500
O       14.84214000      18.30599000      18.14514000      -0.24275500       0.43669200      -0.04708900
O       14.40538000      13.18080000       9.85676000       0.70110600       0.84601400      -0.89720400
O       17.87885000      13.18405000      13.97180000      -0.08568500      -0.35759300       0.67273100
O       15.18567000      18.67807000      10.16931000       0.53185300       0.49817100       0.20046900
O       17.73740000      18.73226000      13.77413000      -0.24897100      -0.06329500      -0.82182700
O       11.03424000      12.19764000      18.68425000      -0.36752000       0.28108500      -0.11455400
O       11.39077000      17.18310000      18.96361000       0.06904600       0.07505700       0.09706100
O       14.64705000      16.11106000      22.81640000       0.51579900      -0.83600700       0.25091100
O       11.26371000      12.28631000      10.64578000      -0.40454100       0.36133400       0.03497400
O       14.62197000      11.29386000      14.93550000       0.00571300      -0.11907400       0.00512600
O       18.48804000      11.52064000      18.70253000       0.18163600       0.16269200      -0.69899900
O       11.45534000      17.23117000      10.91449000      -0.10825600      -0.53291700       0.16335200
O       14.83463000      16.32984000      15.13609000       0.03307100      -0.18930700      -0.28918700
O       18.55608000      16.39274000      19.17475000       0.13304200      -0.41215600      -0.35200200
O       15.54751000      21.41422000      15.09270000       1.30289200      -0.07689300      -0.36865300
O       18.18712000      11.59906000      11.00385000      -0.32337500       0.53589300      -0.02550300
O       14.84883000      16.40851000       7.13176000      -0.29088600      -0.25686900      -0.28808700
O       18.36909000      16.17760000      11.34939000       0.07066000       0.40070400      -0.41429000
O       11.35007000      13.49299000      18.60804000      -0.12306600      -0.16822400       0.08194800
O       15.22292000      13.68557000      22.96110000       0.04921000       0.93212600       0.34733200
O       11.71750000      18.49464000      19.12211000      -0.14680200      -0.26679700      -0.04047500
O       14.36091000       8.55088000      14.90049000       0.32807100      -0.60320700      -0.35841800
O       11.46261000      13.70561000      10.85868000       0.05134000       0.06557200       0.20357700
O       15.14146000      13.70019000      14.86386000       0.23940600       0.18497300       0.03301600
O       18.58033000      12.76959000      19.11324000       0.46216000       0.24678800      -0.22723300
O       11.53762000      18.49207000      11.25622000       0.10045800       0.13549000       0.75573300
O       15.42708000      18.70832000      15.03736000      -0.41327200       0.19740600      -0.02983200
O       18.81870000      17.77409000      19.38273000       0.48813500      -0.38166900      -0.35927800
O       15.76250000      13.71999000       7.55927000      -0.06495200      -0.69808400      -0.74231200
O       18.58466000      12.93849000      11.04158000      -0.22714900      -0.01179700      -0.22852100
O        9.67760000      14.41239000      16.73105000       0.33937600       0.32742700       0.07888500
O       13.24262000      13.85685000      20.78199000      -0.42250300       0.81998500      -0.22089200
O       13.88439000      18.90252000      20.76745000       0.19731500       0.01682000       0.06478200
O       12.95616000       9.40295000      12.96776000      -0.29786800       1.02053600       0.00182500
O       15.85732000       8.23445000      17.20218000      -0.47781000      -0.04772500      -0.08361300
O       13.50844000      13.76618000      12.67987000       0.14600600      -0.03906100      -0.07865500
O       16.82974000      13.68278000      16.94694000       0.10505500       0.72983500       0.16596600
O       13.84161000      18.95309000      12.93044000      -0.51643600      -0.24986500      -0.17520800
O       17.17796000      19.20340000      17.13631000       0.27108000       0.89719300       0.05422300
O       16.63563000      13.77588000       8.59688000       0.70311000      -0.32586500       0.47909300
O       20.39419000      14.30444000      13.31192000       0.22910700       0.60294800      -0.20348600
O       17.08245000      19.16487000       9.39257000      -1.26694700      -0.14767600       0.66139100
O       12.48472000      10.73506000      20.70843000       0.00429700       0.68968100      -0.49090600
O        9.57412000      15.71185000      16.66391000      -0.03300700      -0.25565700       0.21253800
O       13.06854000      15.69883000      20.97221000      -0.13828900      -1.31119700      -0.16531700
O       12.91853000      10.77493000      12.79755000      -0.33194700      -0.22170200      -0.11348100
O       16.17766000      10.99780000      17.02637000       0.38722600       0.20581800      -0.09556400
O       13.19240000      16.31648000      13.03269000       0.10259000      -0.37467500      -0.29209900
O       16.52002000      16.25849000      17.21069000       0.07638600      -0.42002000      -0.17644700
O       14.18329000      21.75324000      12.83559000       0.48222800       0.18792100      -0.03200400
O       17.17745000      20.56382000      17.02634000      -0.17586300      -1.53637800      -0.22944600
O       16.61452000      16.44230000       9.14304000       0.11269600      -0.52182500       0.07475900
O       20.31422000      15.63616000      13.30357000      -0.25350400      -0.74428400       0.21858100
