107
Lattice="30.0 0.0 0.0 0.0 30.0 0.0 0.0 0.0 30.0" Properties=species:S:1:pos:R:3:forces:R:3 energy=-799.74952815 stress="-14.98524 -3.47118 1.46734 -3.47118 -24.5595 7.21511 1.46734 7.21511 -19.17256" pbc="T T T"
Zr      12.93924000      12.60686000      14.82098000      -0.34621700       0.10654700      -0.14313700
Zr      16.29325000      12.37528000      18.76217000       0.43575000       0.54399100       0.21580400
Zr      13.34336000      17.91041000      14.81455000       0.09205000       0.35800000      -0.93260600
Zr      16.60268000      17.72253000      19.02090000       2.19379700       0.79602700      -0.06085100
Zr      16.36873000      12.74147000      10.59644000       0.77454700       0.66559400      -0.59048500
Zr      17.02804000      17.54147000      10.74966000       0.35082200      -1.03518200       0.31144900
Zr      13.20424000      12.01084000      19.42377000      -0.56523800       0.04400100      -0.15414100
Zr      13.67481000      17.35479000      19.57985000      -1.50272900       0.15687300       0.27451500
Zr      13.29001000      12.43806000      11.17602000       0.01580900       0.14714700      -0.81835200
Zr      16.67289000      12.12405000      15.14831000       0.05324700       0.09692100       0.51400700
Zr      13.78675000      17.63233000      11.16976000      -0.29423700      -0.07498100       0.77997700
Zr      16.91244000      17.25109000      15.23028000       0.39232100      -0.01870500       0.65999100
Zr      11.76086000      15.45402000      17.15263000       0.02518400       0.10947100       0.99849600
Zr      15.05083000      14.80194000      21.29030000       0.57063800      -0.68244100      -0.25129600
Zr      15.21253000       9.91947000      12.99633000       0.79669000      -0.78583900       0.11908600
Zr      15.05720000      15.24193000      13.31783000       0.01370000      -0.75940800      -0.14933400
Zr      18.27360000      15.15944000      17.36161000       0.56006700       0.23387200      -0.48773800
Zr      15.44897000      20.12927000      13.45511000      -1.01575500      -0.73678600      -0.66174100
Zr      14.55793000      10.02787000      16.62563000      -0.32861500      -0.48118100      -0.90449600
Zr      11.69345000      14.91791000      12.59007000      -0.33398200      -0.07256000       0.50977300
Zr      14.90990000      14.70478000      16.78255000       0.42446100       1.06130600      -0.42450300
Zr      14.73319000      20.03957000      17.03656000      -0.26960500       0.76923200      -0.30066300
Zr      14.98908000      15.39874000       8.70172000       0.45529900      -0.72360700      -0.60742500
Zr      18.38674000      14.67063000      12.71104000      -0.64219100      -0.21117800      -0.21719900
O       13.09891000       8.83120000      15.18005000       0.61821800      -0.42146300      -0.36930900
O       12.85850000      14.17175000      16.11335000       0.19673600      -0.11332600      -0.14438100
O       16.41467000      13.91234000      20.05002000       0.34679300      -0.15251000      -0.08863500
O       13.10152000      19.53353000      15.84430000       0.55446700       0.27843100       0.52795900
O       16.32237000      19.09144000      20.33888000      -0.54748100       0.02934600       0.26477100
O       15.82042000       8.71486000      11.73794000      -0.35257500       0.16717700       0.53302800
O       16.31983000      14.16674000      11.91881000       0.06147100       0.24328600       0.30688200
O       19.34376000      13.27001000      16.57219000      -0.85504600      -2.24647000       0.33662800
O       17.13212000      19.12075000      12.55565000      -0.59360500       0.30775700      -0.84333100
O       13.28220000      10.64513000      17.91742000      -0.12744400      -0.36683700       0.39272400
O       10.65821000      16.79381000      13.44329000       0.18088400       0.40013100      -0.68265900
O       13.62166000      15.78375000      18.04167000      -0.60812800       0.01593900      -0.36375800
O       14.12676000      21.25815000      18.24825000       0.11951800      -0.06304900      -0.35893900
O       16.87420000      10.46981000      14.07883000      -0.57170100      -0.22355000      -0.45884100
O       13.61314000      16.04373000      10.00640000      -0.06118000       0.37209700       0.12138100
O       17.07459000      15.80645000      13.92522000       0.16959300      -0.24914900      -0.42681800
O       16.82033000      21.26362000      14.79186000       2.58025100      -0.04823300      -0.48003200
O       12.15055000      11.28737000      15.89439000       0.03541500       0.20313700      -0.24408600
O       15.03323000      11.41403000      19.90512000       0.76672200       0.05405700       0.02877000
O       12.05556000      16.85446000      15.96096000      -0.02949700       0.47421200      -0.72127800
O       15.50187000      16.49455000      20.07839000      -0.41009800      -0.00650400       0.00072600
O       15.18290000      11.49358000      11.63095000      -0.58255500       0.34428700      -0.32214400
O       18.79575000      12.01813000      16.40877000       1.25022500       2.59550300       0.84519800
O       15.48427000      16.76641000      11.97544000       0.22360100       0.63211800      -0.48093700
O       18.76500000      16.46381000      16.03569000      -0.55109800      -0.33721000      -0.03542500
O       15.27241000      22.04257000      12.13900000       0.22890800      -0.57046200       0.16543200
O       14.78866000       7.88990000      17.87333000      -0.25981000       0.22013500       0.08491900
O       11.24379000      13.61218000      13.88875000       0.32984400       0.51639600      -0.23456800
O       14.55712000      13.24170000      18.01654000      -0.19758500      -1.10594300       0.64512300
O       11.18080000      17.98462000      13.61335000      -0.34827200      -0.59911700      -0.51256400
O       14.81631000      18.34202000      18.13807000      -0.42019900      -0.89903800       0.28627100
O       14.46372000      13.25892000       9.78561000      -0.68333000      -0.53251200       0.84246100
O       17.87457000      13.16465000      14.01989000       0.40266400       0.72012700      -0.57628600
O       15.26226000      18.74546000      10.19028000       1.67102700       0.94031800      -0.72404600
O       17.73078000      18.70023000      13.73304000       0.55076500      -0.62998000       1.12858200
O       10.99530000      12.22698000      18.67495000       0.02593200      -0.08287400       0.07227100
O       11.40332000      17.17840000      18.97428000       0.24547600      -0.27704300       0.10333600
O       14.71535000      15.99682000      22.85425000       0.80797100      -1.71813900       0.85465500
O       11.23213000      12.32579000      10.65319000       0.52595900      -0.24181100       0.10213000
O       14.61940000      11.27912000      14.93159000      -0.21658000      -0.26033400       0.04107800
O       18.50785000      11.57184000      18.62057000      -0.11689800      -0.48747200      -0.91492900
O       11.44908000      17.21076000      10.94588000      -0.18993400      -0.18268600       0.28109300
O       14.83842000      16.31479000      15.10511000       0.05467500       0.38092600       0.25655500
O       18.57015000      16.36501000      19.13934000      -0.25684100      -0.11048200      -0.02707000
O       15.56873000      21.42923000      15.09007000      -2.85819900       0.88040100       1.05647200
O       18.15201000      11.63686000      11.00139000       0.02619700      -0.11259700       0.09865000
O       14.81153000      16.37719000       7.09406000      -0.29201900      -0.33697800      -0.06341000
O       18.38461000      16.20850000      11.31551000       0.21983400      -0.43599000       0.50656300
O       11.33092000      13.48104000      18.61384000      -0.15076200       0.15478200      -0.00292900
O       15.22958000      13.81262000      23.01078000      -0.24378500       2.03495500       0.26773700
O       11.70648000      18.47031000      19.12058000       0.21254000      -0.02320200       0.07491200
O       14.37261000       8.49934000      14.88697000      -0.03570500      -0.02195100       0.17031600
O       11.47310000      13.71796000      10.88190000       0.20398900       0.30618300      -0.14286700
O       15.16601000      13.72186000      14.86849000      -0.24630700      -0.11488300      -0.09223000
O       18.63243000      12.76986000      19.07728000       0.49618800       0.77736200      -0.06507600
O       11.55097000      18.46068000      11.34228000       0.21378100      -0.15792100       0.67451200
O       15.39795000      18.73584000      15.03775000       0.50119600       0.19518100      -0.08361800
O       18.85644000      17.71125000      19.33137000      -0.56984400      -0.03545700      -0.35771400
O       15.79713000      13.64771000       7.52942000       0.66587800       0.11481800       0.77970000
O       18.56021000      12.96199000      11.01899000      -0.19794400       0.30157700      -0.11220100
O        9.72540000      14.41789000      16.74388000       0.37928400      -0.18809700       0.12388600
O       13.18811000      13.99003000      20.75562000      -0.42389200       1.78333800      -0.09138100
O       13.91468000      18.89996000      20.76756000       0.54914600      -0.24654000      -0.32164500
O       12.91100000       9.48403000      12.97320000       0.09774700      -0.59846400       0.41939800
O       15.82045000       8.23370000      17.17468000      -0.20631500       0.08268000      -0.26413200
O       13.52693000      13.75431000      12.67345000       0.16532200      -0.21495400       0.01995700
O       16.83146000      13.75889000      16.96920000      -0.13760900      -0.39980800       0.13410500
O       13.81572000      18.93602000      12.92367000       0.90370200       0.22747400       0.11226000
O       17.22280000      19.15576000      17.16421000       0.09790800       1.05522400      -0.16465800
O       16.68016000      13.72998000       8.59600000      -0.33808900      -0.18091100      -0.86554900
O       20.43088000      14.30799000      13.28440000       0.40804100      -0.50994200      -0.24370000
O       16.91188000      19.14759000       9.47902000      -2.75806700      -0.16060600       1.08863100
O       12.47148000      10.80880000      20.66076000      -0.64919400      -0.03673500       0.36376200
O        9.56562000      15.71487000      16.69030000      -0.16830900       0.22864400       0.20635600
O       13.04774000      15.51620000      20.93889000      -0.36882900      -1.81255600      -0.71982400
O       12.87407000      10.80376000      12.76912000      -0.27898800       1.28327500      -0.39465600
O       16.21491000      11.02290000      17.01467000      -0.00137400       0.29066700       0.32195200
O       13.20895000      16.27496000      12.99629000       0.05098000       0.08743500      -0.18443000
O       16.51744000      16.23520000      17.18479000      -0.53687100       0.57899100      -0.02981900
O       14.19867000      21.76378000      12.86730000       0.16849200       0.17256500       0.10379600
O       17.16662000      20.52859000      16.98520000      -0.31984200      -1.76510500      -0.01989300
O       16.62624000      16.39183000       9.16660000      -0.09316400      -0.06197700       0.52103300
O       20.27679000      15.61499000      13.33286000      -0.30818700       0.38282100       0.28467000
