107
Lattice="30.0 0.0 0.0 0.0 30.0 0.0 0.0 0.0 30.0" Properties=species:S:1:pos:R:3:forces:R:3 energy=-801.01812759 stress="-15.53926 -2.41675 2.88318 -2.41675 -19.84821 8.56124 2.88318 8.56124 -19.13894" pbc="T T T"
Zr      12.93410000      12.61443000      14.82256000      -0.32746900       0.02844000      -0.18032600
Zr      16.29075000      12.38789000      18.76827000       0.57246800       0.33479800       0.16139600
Zr      13.35487000      17.91183000      14.80968000       0.06584700       0.44986500      -0.72046200
Zr      16.60990000      17.73491000      19.02708000       1.88440300       0.75819700       0.06198500
Zr      16.37073000      12.74687000      10.59057000       0.78650300       0.49121500      -0.46243300
Zr      17.02909000      17.52245000      10.76184000       0.40052500      -0.83775700       0.35834400
Zr      13.21453000      12.00148000      19.42412000      -0.75313300       0.07152500      -0.24688100
Zr      13.67887000      17.35729000      19.57004000      -1.56113900       0.20170600       0.30485800
Zr      13.29389000      12.44590000      11.16712000      -0.02131000      -0.06100400      -0.65450500
Zr      16.65996000      12.13232000      15.14830000       0.07712600      -0.10247900       0.29440200
Zr      13.78793000      17.63355000      11.17902000      -0.16206700      -0.15799700       0.60431600
Zr      16.91080000      17.24377000      15.23980000       0.32861700       0.15516400       0.37663800
Zr      11.75459000      15.45903000      17.15670000       0.02676800       0.25718500       0.81642700
Zr      15.06455000      14.79688000      21.28143000       0.61800900      -0.55752100      -0.53169900
Zr      15.22271000       9.91542000      12.98707000       0.63058900      -0.67457500       0.26625700
Zr      15.05993000      15.24141000      13.32117000       0.04512400      -0.77553000      -0.26317100
Zr      18.27027000      15.16891000      17.36501000       0.49934900       0.28629100      -0.46909300
Zr      15.44069000      20.14105000      13.44883000      -0.61964600      -0.70731400      -0.37992700
Zr      14.55758000      10.03264000      16.63177000      -0.33279900      -0.44720600      -0.87096700
Zr      11.70008000      14.90989000      12.58619000      -0.37028000      -0.00283300       0.46407000
Zr      14.90768000      14.70973000      16.78180000       0.30819300       1.03815400      -0.34506500
Zr      14.72767000      20.04202000      17.04794000      -0.02844300       0.63296100      -0.68132100
Zr      14.99094000      15.39213000       8.69479000       0.33038700      -0.47857900      -0.51392200
Zr      18.38627000      14.66321000      12.71042000      -0.44569400      -0.15785800      -0.26369500
O       13.10632000       8.80888000      15.16335000       0.40829100      -0.30664000      -0.30186100
O       12.86230000      14.17865000      16.11741000       0.18685800      -0.11162300      -0.14090600
O       16.42436000      13.91071000      20.04892000       0.35813900      -0.05183500      -0.00133700
O       13.11030000      19.53613000      15.84353000       0.42927800       0.15927900       0.42637600
O       16.30773000      19.09262000      20.34626000      -0.57525900      -0.04544500       0.22004200
O       15.81546000       8.70775000      11.74189000      -0.24993100       0.01644900       0.37463300
O       16.31094000      14.16735000      11.91344000       0.08658900       0.26839900       0.34155000
O       19.34068000      13.24370000      16.59222000      -0.17364600      -0.66809500       0.51076700
O       17.13269000      19.11850000      12.54475000      -0.30642400       0.08344700      -0.06972900
O       13.27616000      10.63308000      17.92925000      -0.03280300      -0.39594700       0.29647000
O       10.65990000      16.80448000      13.41780000      -0.17809500      -0.43789100      -0.75310700
O       13.61897000      15.78738000      18.04202000      -0.56172200      -0.08311900      -0.38530500
O       14.13077000      21.25874000      18.23886000      -0.04428500       0.20682900      -0.06483000
O       16.87273000      10.46574000      14.07731000      -0.51286400       0.00911400      -0.30270200
O       13.60717000      16.04689000      10.00740000       0.10869100       0.40673400       0.06806500
O       17.07284000      15.80169000      13.91830000       0.10996400      -0.16816000      -0.30632100
O       16.82492000      21.26911000      14.79248000       1.24306600       0.05322400      -0.19460500
O       12.15372000      11.29418000      15.88838000       0.00792300       0.15753900      -0.21064500
O       15.03248000      11.41237000      19.90738000       0.90227800       0.07799300       0.06993400
O       12.05115000      16.85496000      15.94985000       0.01708400       0.40293300      -0.67560100
O       15.48826000      16.49009000      20.08076000      -0.20357100       0.12712100      -0.10103000
O       15.18464000      11.49033000      11.63385000      -0.54043800       0.50795000      -0.48834800
O       18.81807000      12.05289000      16.42515000       0.58314800       0.96395200       0.65006300
O       15.48253000      16.76959000      11.97618000       0.17195200       0.57958300      -0.45006200
O       18.76295000      16.45929000      16.02511000      -0.53084000      -0.40341200       0.08467200
O       15.28373000      22.02790000      12.13826000      -0.00135300      -0.58746800       0.29361800
O       14.78242000       7.89596000      17.87739000      -0.14023200       0.26969800      -0.01808100
O       11.24126000      13.62006000      13.89279000       0.33074000       0.47809100      -0.20981300
O       14.55997000      13.23731000      18.01549000      -0.24112700      -0.97618900       0.60424400
O       11.16901000      17.97116000      13.60196000       0.01269500       0.25565200      -0.44463400
O       14.80715000      18.33650000      18.13973000      -0.27677500      -0.91265100       0.28857600
O       14.46325000      13.26246000       9.78724000      -0.59912900      -0.45649700       0.66212800
O       17.88055000      13.17320000      14.01723000       0.23854800       0.46769300      -0.28998400
O       15.29423000      18.76693000      10.18439000       1.65093100       0.91931000      -0.76232500
O       17.74045000      18.68497000      13.74801000       0.16046900      -0.32543100       0.36302500
O       10.99016000      12.22977000      18.67460000       0.05753800      -0.11109600       0.07594000
O       11.40813000      17.17302000      18.97707000       0.23773700      -0.28784500       0.10307400
O       14.73565000      15.95895000      22.87069000       0.84761800      -2.05474900       0.92465900
O       11.23497000      12.32977000      10.65588000       0.50964300      -0.27669300       0.07096100
O       14.61611000      11.27264000      14.93214000      -0.17433000      -0.17287100       0.05297900
O       18.50953000      11.57750000      18.59883000      -0.13700500      -0.29652800      -0.83810700
O       11.44620000      17.20807000      10.95460000      -0.26045400      -0.29741400       0.26122800
O       14.84032000      16.31819000      15.10418000       0.03177300       0.32101600       0.28262400
O       18.56891000      16.36328000      19.13425000      -0.35831800      -0.54805000      -0.07547900
O       15.54630000      21.43986000      15.09982000      -1.59795300       0.63683100       0.63670800
O       18.14706000      11.63835000      11.00238000       0.04547300       0.03358100       0.10036300
O       14.80238000      16.36882000       7.08729000      -0.26786900      -0.40397800       0.02929000
O       18.38932000      16.20718000      11.31767000       0.31673200      -0.54235900       0.53873000
O       11.32638000      13.48146000      18.61458000      -0.12475500       0.19584700       0.02470000
O       15.22735000      13.85706000      23.02006000      -0.33776400       2.28593800       0.42217800
O       11.70795000      18.46792000      19.12141000       0.20480500      -0.02451500       0.08082300
O       14.37622000       8.49116000      14.88674000       0.14737000      -0.08052300       0.12314200
O       11.47702000      13.72198000      10.88285000       0.18388500       0.31489000      -0.18251400
O       15.16600000      13.72352000      14.86764000      -0.22668500      -0.14421800      -0.05241500
O       18.64543000      12.77515000      19.06979000       0.50387800       0.61261200      -0.18417100
O       11.55527000      18.45187000      11.36237000       0.25139900      -0.03061500       0.71221500
O       15.40091000      18.74220000      15.03690000       0.51624300       0.07083900      -0.06227700
O       18.85222000      17.69878000      19.31857000      -0.42458400       0.44132100      -0.29110600
O       15.80936000      13.63919000       7.53392000       0.36283400       0.08718500       0.38375500
O       18.55504000      12.97125000      11.01438000      -0.22885200       0.17448500      -0.12019100
O        9.73725000      14.41562000      16.74736000       0.33444200       0.06670400       0.10329400
O       13.17487000      14.03459000      20.75128000      -0.36581000       0.46319800      -0.24706600
O       13.92598000      18.89605000      20.76327000       0.59065000      -0.17599600      -0.28199900
O       12.90661000       9.49607000      12.97841000       0.14886000      -0.44180800       0.40420700
O       15.81354000       8.23510000      17.16684000      -0.33070100       0.04961400      -0.18260500
O       13.53201000      13.74974000      12.67240000       0.12584900      -0.15684800       0.06123800
O       16.82937000      13.76488000      16.97433000      -0.03269100      -0.43448800       0.05472700
O       13.82531000      18.93768000      12.92455000       0.75398100       0.16299200       0.05417400
O       17.23101000      19.14533000      17.16775000       0.10072900       1.10792600      -0.17101200
O       16.68336000      13.72144000       8.58615000      -0.06031400      -0.15704200      -0.50424300
O       20.44173000      14.30074000      13.27745000       0.25485600       0.02539700      -0.24450900
O       16.85334000      19.14280000       9.50535000      -2.93167700      -0.23446200       1.17033200
O       12.46178000      10.81927000      20.65815000      -0.71485000      -0.08854700       0.47432100
O        9.56205000      15.71898000      16.69663000      -0.10656700      -0.03754100       0.22775200
O       13.04021000      15.46467000      20.92443000      -0.46075400      -0.57080500      -0.54729900
O       12.86494000      10.81619000      12.76135000      -0.30397900       1.08368400      -0.32356800
O       16.21980000      11.02954000      17.01780000      -0.06779300       0.28635400       0.21546000
O       13.21242000      16.26955000      12.98870000       0.04335800       0.21247700      -0.14552400
O       16.50981000      16.24006000      17.18013000      -0.43219700       0.53762300       0.06545400
O       14.19910000      21.76611000      12.87548000       0.33192100       0.30577800      -0.09085100
O       17.16083000      20.51966000      16.97692000      -0.30806200      -1.86166500       0.01866800
O       16.62786000      16.38472000       9.17746000      -0.18791200      -0.13490600       0.40578700
O       20.26738000      15.61793000      13.34069000      -0.24977000      -0.13616600       0.25799000
