107
Lattice="30.0 0.0 0.0 0.0 30.0 0.0 0.0 0.0 30.0" Properties=species:S:1:pos:R:3:forces:R:3 energy=-807.45693356 stress="-19.80945 -2.98545 4.45559 -2.98545 -14.6267 6.17378 4.45559 6.17378 -15.45964" pbc="T T T"
Zr      12.89074000      12.66383000      14.80933000       0.09327200      -0.03178500       0.06803300
Zr      16.32687000      12.42092000      18.77159000      -0.05947700      -0.46863100      -0.34504700
Zr      13.41381000      17.94923000      14.76975000      -0.13297200      -0.06462700       0.01651200
Zr      16.70925000      17.83515000      19.08823000      -0.61979900      -0.58934700      -0.19359600
Zr      16.41772000      12.78340000      10.54068000      -0.23062700      -0.02198100      -0.07066400
Zr      17.07989000      17.36364000      10.86067000      -0.37056500       0.91619000      -0.54404700
Zr      13.21417000      11.93457000      19.39700000      -0.10193800      -0.41856800       0.13186200
Zr      13.59146000      17.37725000      19.51979000      -0.23453700      -0.18088300      -0.10618900
Zr      13.31591000      12.44911000      11.11303000       0.13982400      -0.15224700       0.22211200
Zr      16.60260000      12.14861000      15.15230000       0.33556600      -0.17166500       0.15730500
Zr      13.74909000      17.58207000      11.25759000      -0.14620500      -0.09662200      -0.21069300
Zr      16.90794000      17.23002000      15.26134000      -0.00661900       0.03828700      -0.40736000
Zr      11.73024000      15.55032000      17.17941000       0.10663100       0.37643000      -0.50789000
Zr      15.13240000      14.75519000      21.09172000      -1.40258100       0.18091700      -0.17911600
Zr      15.28661000       9.87929000      12.96476000      -0.14605300      -0.04771300      -0.17234600
Zr      15.08297000      15.18233000      13.31088000       0.03994900       0.01812500      -0.11894300
Zr      18.26956000      15.21676000      17.35886000      -0.07079000      -0.29243000      -0.14572800
Zr      15.42397000      20.17342000      13.46074000       0.20667700      -0.38704000       0.22949200
Zr      14.52712000      10.04746000      16.61625000      -0.40005900      -0.10132400      -0.42929100
Zr      11.71568000      14.89635000      12.57719000      -0.12638100       0.30151500      -0.05750600
Zr      14.89441000      14.78729000      16.77882000       0.02938000      -0.26137300       0.12854200
Zr      14.72197000      20.07246000      17.03446000       0.10269000       0.14122600       0.13266500
Zr      15.00054000      15.34527000       8.63138000      -0.06350100      -0.10065900       0.31601000
Zr      18.38208000      14.59070000      12.69338000      -0.01401800      -0.30342400       0.14082300
O       13.15252000       8.65701000      15.03913000       0.28648700       0.11639200      -0.00567000
O       12.89223000      14.22130000      16.13735000      -0.11083400      -0.00098200      -0.04865200
O       16.54005000      13.93399000      20.07989000       0.43205200       0.10683900       0.15385000
O       13.17251000      19.55025000      15.85055000      -0.18686400      -0.00093800      -0.05285200
O       16.13115000      19.09041000      20.41880000      -1.73783000      -0.03380800       0.51887300
O       15.78784000       8.61932000      11.76047000      -0.00439100      -0.06265400       0.22844300
O       16.27263000      14.19534000      11.90354000       0.40723500      -0.02172700       0.02345400
O       19.41487000      13.26792000      16.78963000       0.12664100       0.23455800       0.07278600
O       17.14389000      19.07914000      12.56239000      -0.12070700      -0.05906900       0.40442000
O       13.25502000      10.50841000      18.00456000       0.23201000      -0.30179800      -0.09346300
O       10.63386000      16.78798000      13.19924000      -0.16036300      -0.31455600      -0.01999000
O       13.57581000      15.78936000      18.02042000       0.18424600       0.06463700       0.13535300
O       14.13089000      21.31927000      18.21100000      -0.02411500       0.04944800      -0.11693800
O       16.84570000      10.47915000      14.07116000       0.05892700       0.29463800      -0.01328600
O       13.61805000      16.10874000       9.99528000       0.47668700      -0.00926100      -0.53325400
O       17.05516000      15.78028000      13.87551000      -0.04929600       0.13695100       0.11413200
O       16.75985000      21.32491000      14.82162000       0.01213300       0.19553500       0.09102100
O       12.16270000      11.33063000      15.85015000      -0.09525100      -0.13095200       0.09008100
O       15.10848000      11.42382000      19.93433000       0.17260200       0.40904400      -0.03831400
O       12.03520000      16.86879000      15.84184000       0.14492400       0.11138900      -0.24381900
O       15.43278000      16.47846000      20.08611000       0.50030400       0.16734500      -0.09498900
O       15.17046000      11.51892000      11.59129000      -0.04883700      -0.17608500      -0.23910200
O       18.91342000      12.11547000      16.55496000       0.26379800       0.11740300       0.16809800
O       15.48462000      16.81053000      11.97067000       0.27681500      -0.33071800       0.32911000
O       18.72196000      16.41033000      15.96137000      -0.03036400       0.02665000      -0.02519800
O       15.34698000      21.89796000      12.14925000       0.02517100       0.07041900      -0.10109300
O       14.73570000       7.96347000      17.89267000      -0.15428600       0.18759100      -0.07822400
O       11.23976000      13.69081000      13.92328000       0.01410500       0.15457600      -0.00409700
O       14.55963000      13.18054000      18.04058000       0.04017500       0.28311800       0.11736200
O       11.11303000      17.94489000      13.47967000      -0.00529800       0.04081100      -0.43314800
O       14.77010000      18.27206000      18.13960000       0.34867300       0.42232000      -0.31566400
O       14.44978000      13.28301000       9.78730000       0.06574900       0.10005500      -0.29524800
O       17.90211000      13.21148000      14.03471000      -0.26052000      -0.42380600       0.54521200
O       15.28357000      18.91598000      10.23139000       1.20503800       0.34128900      -0.50817900
O       17.77108000      18.60247000      13.76324000      -0.00118800       0.14477600      -0.47647600
O       10.97066000      12.24548000      18.67955000       0.20445700      -0.06603800       0.09348800
O       11.45424000      17.11138000      19.00099000       0.01127100      -0.20002400      -0.05570200
O       14.92688000      15.59176000      23.06204000       0.12521300       0.57938800       0.02367000
O       11.28101000      12.34051000      10.67073000      -0.00340500      -0.01372100      -0.08721600
O       14.58698000      11.23586000      14.93659000      -0.07289700       0.23222200      -0.22765400
O       18.51292000      11.64848000      18.42256000      -0.02514900      -0.17939200      -0.15269900
O       11.40165000      17.18348000      11.04515000      -0.30394700      -0.06762100       0.11311700
O       14.85080000      16.34911000      15.11617000      -0.10578200      -0.08809000      -0.02527000
O       18.51910000      16.28251000      19.11265000      -0.29356200       0.37456100       0.46496800
O       15.44952000      21.51835000      15.14840000      -0.18427000       0.08171800       0.01432400
O       18.12086000      11.66840000      11.01793000       0.10274000       0.09577800       0.09271200
O       14.72036000      16.27026000       7.05514000      -0.21089000      -0.25779400      -0.17969400
O       18.46799000      16.15164000      11.37136000       0.47959300      -0.21186200       0.14904700
O       11.28350000      13.49705000      18.62640000      -0.21921500       0.12742500      -0.03290300
O       15.18765000      14.27841000      23.16004000       0.10784800      -0.55450500       0.13163100
O       11.72359000      18.45473000      19.13591000      -0.07153500       0.08827900       0.05191800
O       14.44819000       8.42166000      14.88486000       0.15062300       0.00108200      -0.08770500
O       11.50998000      13.75894000      10.85795000       0.03989500      -0.05309900      -0.24278300
O       15.14973000      13.72147000      14.86614000      -0.09670400      -0.11780000       0.12160100
O       18.76773000      12.79997000      18.97026000       0.33588900       0.21803100      -0.09988500
O       11.60784000      18.38831000      11.54045000       0.05805200       0.09809700       0.19997600
O       15.46449000      18.76858000      15.03539000       0.19677200      -0.07414600       0.18193400
O       18.81411000      17.69474000      19.21044000      -0.05763600      -0.08392000      -0.31451700
O       15.86001000      13.58274000       7.51706000       0.14552300       0.06195900       0.11464700
O       18.51021000      13.03725000      10.97500000       0.13907300       0.10131400      -0.00508400
O        9.83482000      14.42914000      16.77514000       0.17302100      -0.04650200       0.05252400
O       13.12667000      14.00329000      20.67236000       0.78034500       0.70216800       0.16506300
O       14.08373000      18.88897000      20.73403000       1.77788500       0.36369000       0.00918000
O       12.90611000       9.60764000      13.02958000       0.51514000       0.03887300       0.09205100
O       15.73135000       8.24498000      17.10360000      -0.17402900      -0.02837600      -0.17464500
O       13.56072000      13.71983000      12.67572000      -0.30157900       0.06403000       0.01251900
O       16.81993000      13.77949000      17.00121000      -0.01041200      -0.01413800      -0.10754600
O       13.91325000      18.95329000      12.92041000      -0.09240000       0.07075800       0.26521000
O       17.31018000      19.08250000      17.19274000       0.31391900      -0.21566800       0.00252300
O       16.75347000      13.65422000       8.55010000      -0.09159300      -0.07942100      -0.28755400
O       20.50982000      14.30963000      13.20856000       0.05154800      -0.06670600      -0.28685400
O       16.57251000      19.15555000       9.62410000      -1.57194900      -0.71011900       1.23872800
O       12.32839000      10.88359000      20.69592000      -0.37804000       0.26907000       0.16990500
O        9.53482000      15.71502000      16.76439000      -0.12660900      -0.02415000       0.27327000
O       12.94543000      15.43072000      20.84830000       0.50753300      -0.73137600      -0.02565700
O       12.76811000      10.91022000      12.71549000      -0.48602000       0.16245100       0.22765100
O       16.21753000      11.08366000      17.02793000      -0.43326900      -0.15058900      -0.17381600
O       13.24735000      16.27405000      12.93764000      -0.06091800       0.13883100       0.23689100
O       16.45269000      16.30919000      17.17907000       0.29145100       0.09997700       0.37783000
O       14.23327000      21.82608000      12.90553000       0.37854000       0.16302800      -0.08452200
O       17.08501000      20.38499000      16.91458000      -0.44578000      -0.37387500       0.01504600
O       16.60757000      16.34073000       9.27320000      -0.25135400       0.04549300       0.08404800
O       20.20009000      15.57533000      13.41642000      -0.02887900       0.03890700       0.36675100
