107
Lattice="30.0 0.0 0.0 0.0 30.0 0.0 0.0 0.0 30.0" Properties=species:S:1:pos:R:3:forces:R:3 energy=-809.79032364 stress="-9.64277 -0.59825 -1.93871 -0.59825 -14.21471 2.24643 -1.93871 2.24643 -13.78715" pbc="T T T"
Zr      12.89898000      12.65874000      14.81810000      -0.21178100      -0.13867400      -0.04546600
Zr      16.33413000      12.37384000      18.73438000      -0.10508000       0.91456200       0.50880700
Zr      13.40374000      17.95402000      14.76612000       0.46825900       0.23874100      -0.31332100
Zr      16.62380000      17.75256000      19.05887000       1.31947700      -0.15108000      -1.29449800
Zr      16.40245000      12.78625000      10.52383000       0.38159900       0.03552400      -0.11901400
Zr      17.06411000      17.42437000      10.81789000       0.72372000      -1.68960700       1.47743300
Zr      13.19379000      11.84969000      19.41379000       0.20400300      -0.13567100      -0.08383200
Zr      13.53963000      17.36783000      19.49068000      -0.72170500      -0.64904400      -0.97477000
Zr      13.32863000      12.42957000      11.13936000      -0.31943600       0.33050900      -0.29069800
Zr      16.63855000      12.11837000      15.18448000      -0.66979700      -0.11930800       0.17809600
Zr      13.71052000      17.54721000      11.25101000       0.13719500      -0.15054500       0.63153700
Zr      16.91503000      17.23251000      15.20953000       0.28305900       0.01139200       0.29112400
Zr      11.73281000      15.61069000      17.10876000      -0.22911700      -0.16933000       0.33880300
Zr      15.02195000      14.76753000      21.07934000       2.70883500      -0.83086700      -0.10513400
Zr      15.27523000       9.87313000      12.94774000       0.30244100       0.32046600       0.38931900
Zr      15.08994000      15.17162000      13.30214000      -0.14026200      -0.00944000       0.31577600
Zr      18.26270000      15.18361000      17.34353000       0.27277300       0.39089100       0.44301200
Zr      15.44773000      20.12638000      13.51021000      -0.09872500       0.63571800       0.00064000
Zr      14.45084000      10.03088000      16.52758000      -0.54398400       0.12021600      -0.40361000
Zr      11.68793000      14.93380000      12.56871000      -0.04516900      -0.28605100      -0.22001800
Zr      14.90601000      14.75181000      16.79194000      -0.03682100       0.01637300      -0.24751400
Zr      14.73101000      20.10415000      17.03582000      -0.67302300       0.50252800      -0.83855800
Zr      14.99401000      15.31767000       8.65065000       0.38833000      -0.33429200      -0.71747000
Zr      18.38337000      14.54648000      12.71244000      -0.05338700       0.35453400       0.00332100
O       13.19632000       8.66680000      15.02902000       0.11814000       0.05387000       0.01064300
O       12.87849000      14.22776000      16.13417000       0.07299300       0.17188900       0.22283700
O       16.58872000      13.95123000      20.10299000      -1.00624700      -0.02403400      -0.08415800
O       13.15338000      19.54844000      15.84327000       0.25588400       0.09203400       0.15884100
O       15.76045000      19.07190000      20.51325000       1.49610200       0.24171000      -0.23873200
O       15.78715000       8.59375000      11.79701000       0.15124300      -0.42004700      -0.15025800
O       16.33549000      14.18932000      11.90754000      -0.13380300      -0.21963200       0.07585700
O       19.45109000      13.32579000      16.82470000      -0.48962600      -1.38536500      -0.22961200
O       17.10081000      19.08257000      12.58631000      -0.19588600       0.06991000      -0.36519900
O       13.29060000      10.44731000      18.00505000       0.02371600      -0.20048700       0.25133400
O       10.60795000      16.74739000      13.17809000       0.18226400       0.93663300       0.14081000
O       13.60063000      15.81114000      18.04800000      -0.08337300       0.68829800       0.20566200
O       14.12229000      21.34205000      18.19782000      -0.00821100       0.08451400       0.23852500
O       16.84830000      10.52091000      14.05916000      -0.06388100      -0.35296000      -0.32271800
O       13.69175000      16.13005000       9.91742000      -0.51747400       0.55375600       0.49030100
O       17.04746000      15.79027000      13.88487000       0.13382100      -0.54367100      -0.21074500
O       16.75541000      21.36536000      14.83845000      -0.71209200       0.20154400       0.11160500
O       12.15193000      11.31341000      15.86094000       0.25455000       0.04728600      -0.00782800
O       15.13474000      11.48609000      19.93927000      -0.20718000      -0.22202300       0.35115600
O       12.05374000      16.89591000      15.78152000      -0.40434100      -0.01470400      -0.11817900
O       15.49249000      16.50869000      20.06653000      -0.80613600       0.00547800       0.50446300
O       15.15800000      11.49135000      11.54231000      -0.06047100      -0.16676200      -0.13765100
O       18.96085000      12.12151000      16.58386000       0.70867900       1.41600800      -0.10458800
O       15.52405000      16.77756000      12.00589000      -0.35761700       0.30789300      -0.44716500
O       18.70943000      16.40468000      15.95556000      -0.02454500      -0.18952800       0.10028800
O       15.37115000      21.89333000      12.12691000       0.28738400      -0.19402700       0.03084700
O       14.70539000       8.00334000      17.87692000      -0.17539900       0.07722200      -0.12606800
O       11.24469000      13.73074000      13.92001000      -0.07990000       0.12636900       0.05377600
O       14.55937000      13.22073000      18.06628000       0.00067700      -0.02846500       0.09613300
O       11.10197000      17.94077000      13.40061000      -0.43291800      -0.66013300       0.25499400
O       14.81850000      18.32210000      18.10509000      -0.19433700      -0.25537600       1.03618100
O       14.45665000      13.29590000       9.74755000      -0.08291300      -0.19275800       0.41704200
O       17.87504000      13.15927000      14.11706000       0.74684500       0.81098600      -0.56308200
O       15.27818000      18.94897000      10.24478000      -2.38491100      -0.40375600       1.15265000
O       17.79802000      18.60222000      13.72273000       0.25716300      -0.18994000       0.23332600
O       11.00852000      12.24398000      18.69500000       0.14903800       0.23998500      -0.05042800
O       11.46377000      17.07115000      18.99455000       0.11631900      -0.17162900      -0.00939600
O       14.97667000      15.57408000      23.07778000      -0.31730800       2.76824300      -0.11729400
O       11.29155000      12.33780000      10.65811000       0.14984100      -0.00265900      -0.00503600
O       14.56933000      11.27075000      14.89598000      -0.04992600       0.00895200      -0.22520500
O       18.52189000      11.66353000      18.39528000       0.25800200       0.03627200      -0.04623700
O       11.35703000      17.17468000      11.06703000       0.42736500       0.29809400      -0.30506600
O       14.83566000      16.33789000      15.11423000       0.17691100      -0.00116000       0.07033300
O       18.45458000      16.32279000      19.18343000      -0.51443300      -0.40837100      -0.05739900
O       15.40862000      21.53753000      15.15103000       0.54991900      -0.09582700      -0.20682400
O       18.13320000      11.69269000      11.03457000      -0.08794800       0.01062300       0.03317500
O       14.67733000      16.20677000       7.03382000      -0.10443500      -0.37957000       0.03063700
O       18.52301000      16.13501000      11.39606000      -0.62183600       0.35249200       0.05893400
O       11.23771000      13.51359000      18.62263000      -0.36075000      -0.07472200      -0.06432800
O       15.18609000      14.30402000      23.17399000       0.43457600      -2.60381900       0.02307000
O       11.72336000      18.45831000      19.14370000       0.52784900      -0.17588700      -0.01908200
O       14.49526000       8.41116000      14.86610000       0.31770000      -0.13526800      -0.16302900
O       11.52286000      13.75596000      10.81516000       0.10091400       0.07844500       0.00795200
O       15.13067000      13.70512000      14.88560000       0.02242300       0.13249200       0.02794100
O       18.82764000      12.80548000      18.93312000       0.05542300       0.13645400       0.31321000
O       11.62239000      18.38678000      11.58723000      -0.20302000      -0.65234900      -0.20668700
O       15.50233000      18.76082000      15.06325000      -0.14585600       0.05235800       0.09437300
O       18.79629000      17.69883000      19.14484000      -0.49059000       0.56028200      -0.18318900
O       15.87120000      13.58717000       7.50993000      -0.15496900      -0.08505600      -0.41388800
O       18.52455000      13.05620000      10.96937000      -0.02044200       0.05236100      -0.06383000
O        9.87637000      14.43109000      16.78818000       0.28472600      -0.17550800       0.09433000
O       13.22324000      14.00503000      20.67046000      -0.61780200      -0.80644300      -0.26482000
O       14.46467000      18.94338000      20.71651000      -1.39520600      -0.23623200       0.32972400
O       12.99533000       9.63282000      13.04919000      -0.13855000       0.88088200      -0.15774900
O       15.69088000       8.23911000      17.06843000      -0.03829400      -0.10098300      -0.11518900
O       13.51827000      13.72992000      12.67581000       0.26740400       0.11386600      -0.10052500
O       16.81937000      13.77541000      16.98072000       0.13410500      -0.02017800      -0.07664700
O       13.90905000      18.96335000      12.95174000      -0.02754700      -0.08157100      -0.27188300
O       17.37298000      19.04504000      17.19382000       0.41282800      -0.62040600       0.16811500
O       16.76346000      13.63431000       8.52015000       0.26451100      -0.04050000       0.21190800
O       20.52158000      14.32086000      13.15466000       0.18946200      -0.13539800      -0.22466500
O       16.47775000      19.10373000       9.73349000       1.93745600       1.21274900      -1.35368000
O       12.24857000      10.93869000      20.73083000      -0.33109800       0.16400800       0.25091600
O        9.51484000      15.70247000      16.82102000       0.02076400       0.12617900       0.28612100
O       12.99068000      15.41155000      20.84064000      -0.23734800       0.92709400      -0.09184400
O       12.67422000      10.94350000      12.75093000      -0.04933700      -0.50521000       0.21195900
O       16.14388000      11.05973000      17.00539000      -0.04232300      -0.10393100       0.33936100
O       13.24213000      16.30146000      12.96382000      -0.02954900      -0.13859800      -0.28767500
O       16.49130000      16.33222000      17.24528000      -0.26700000       0.00792100       0.25170600
O       14.29524000      21.85597000      12.90316000       0.16741100      -0.07056200       0.11969400
O       17.00529000      20.29752000      16.91592000      -0.13241500       0.19989700       0.05714900
O       16.56732000      16.35765000       9.30435000       0.03427700       0.07206700      -0.09403100
O       20.18789000      15.55197000      13.48320000      -0.23084400      -0.03915500       0.23976100
