74
Lattice="30.0 0.0 0.0 0.0 22.52911 0.0 0.0 0.0 30.0" Properties=species:S:1:pos:R:3:forces:R:3 energy=-667.13270337 pbc="T T T"
Zr      15.57571000       2.76661000      16.21506000       1.22467600      -0.34706600      -2.25763300
Zr      13.86293000       0.77414000      11.00533000       0.72678600      -0.59512200       0.81681500
Zr      13.34092000       0.20700000      17.41543000       0.45666200       0.56642200      -0.27290200
Zr      11.68654000      18.47061000      13.41789000       0.09374400      -1.26791000      -1.54500800
Zr      19.43444000       0.00336000      13.69847000      -2.09833100       0.35653800      -2.57010300
Zr      18.57870000      18.51437000      16.65601000      -0.99863300      -0.55255600       0.92644900
Zr      11.65648000       2.72302000      15.08877000       4.56863300       1.08081200      -3.09507000
Zr       9.72439000      20.71940000      14.26635000      -1.55944600       2.72422300       0.94582400
Zr      16.70075000       5.72214000      17.34866000       0.36757700      -0.26709000      -0.05635300
Zr      16.10402000       1.77958000      13.07737000       0.16372800       0.15972900       1.05184200
Zr      16.54932000       0.35796000      19.05939000      -0.25702700       0.98518200      -0.09506600
Zr      15.62973000      18.34679000      12.39505000       0.95222400       0.01313300      -0.15245100
Zr      10.26059000       0.85885000      16.94213000      -0.24631100     -23.91413400       5.68525800
Zr      11.01785000       1.34002000      12.34297000       0.78250600      -1.88387300       1.24951200
Zr      15.91262000       8.28833000      15.70656000      -0.24999200       0.67795500      -0.10911400
Zr      16.35707000      21.09454000      15.76158000      -0.07090100      -0.43669300      -1.45053800
Zr      13.34897000      20.05465000      10.95716000      -0.05758400       1.51755200      -0.12230300
Zr      16.82731000      15.10291000      16.47093000       0.91542800      -0.44198000      -0.16570900
Zr      14.49156000       5.45757000      14.98856000      -0.33640700      -1.02265800      -0.16837100
Zr      18.05859000       2.98843000      18.52055000      -0.60462000       0.66671300      -0.60158600
Zr      13.18352000      21.45610000      14.02543000       2.85850700       4.13363200      -1.68359100
Zr      14.16581000      15.60479000      14.14574000      -0.45638200      -0.72965200       0.46225800
Zr      19.30981000      22.20346000      16.78306000       0.44247700       0.12248900       0.28383600
Zr      18.46565000      19.21909000      13.22734000      -0.14145700       1.80929600      -1.03698500
O       11.92446000       0.30508000      15.76715000      -1.30429000       1.31929900      -0.08272600
O       12.08904000       1.68166000      10.70700000      -0.30546100       0.08362200       0.60041300
O       15.37410000      16.04575000      15.66573000      -0.58546500       0.77846100      -0.27689800
O       18.27882000      21.51670000      15.04713000      -0.09058700       0.44591000       0.15806500
O       17.40385000      13.68421000      15.14640000      -0.30771300       0.27887000      -0.40988500
O       11.70449000      20.31557000      14.45638000      -0.44659800      -1.34512200       0.63284100
O       15.52305000       3.61005000      14.14311000      -0.84526700       0.52635800       1.01637300
O       17.21271000      21.86496000      17.45349000       0.36928200       0.56362000       0.50699100
O       16.57986000      19.76861000      13.76988000       0.26327300      -0.15324500       0.09153400
O       11.58476000      22.48721000      18.23910000       0.15291800       1.43535300       0.76557800
O       12.49792000      21.88037000      12.09611000       0.08425300      -0.39499300       0.15873900
O       17.48316000       7.38362000      16.46561000      -0.05593600      -0.25075100      -0.24674800
O       16.75313000      19.30074000      16.53410000       0.38064800       0.47391800       0.00161000
O       14.91179000      18.90178000      10.67976000      -0.24228800      -0.17300800      -0.27874300
O       16.19737000       2.05690000      18.08706000       0.75760600      -0.02089400       0.03601100
O       12.63217000       1.47891000      13.65338000      -1.12037000      -0.01800100      -0.40783100
O        9.76633000      18.80750000      13.80673000       0.34103100      -1.12130400      -0.48796300
O       19.25458000       1.60123000      17.57953000      -0.54111300      -0.84239700       0.21206500
O       18.11021000       1.42251000      13.01701000       0.53246600      -1.17035700       0.27564500
O       18.09318000      16.56528000      17.17001000       0.20224800       0.81479900       0.02936700
O       17.59007000      18.17692000      11.84398000      -0.23616600       0.18860100       0.65965700
O        9.20551000      21.42422000      16.01169000       0.62240100       1.38570100      -0.11942600
O       12.67999000       4.47632000      15.18677000       0.33565900      -0.09438600      -0.15477600
O       17.80269000       1.68423000      19.99385000      -0.52695900      -0.75169000       0.23412400
O       14.35583000      21.60438000      15.82511000      -0.22303200      -0.91477800       0.35782900
O       11.75938000      18.94951000      11.45022000      -0.10567500      -0.48268100       0.79509400
O       14.31665000      13.63455000      14.33747000       0.84729500      -0.70109400       0.13049200
O       18.94384000      18.15701000      14.79529000       0.63450700       0.01079700       0.22292400
O       10.21429000       2.33269000      16.42958000      -1.24377800      17.98080100      -4.63901300
O       15.20577000       7.23075000      14.19960000       0.20451500      -0.43698300       0.31571800
O       17.42756000       4.98795000      19.05896000       0.20352300      -0.96122900      -0.68072400
O       16.08978000       1.11403000      15.11923000       0.26834000       0.33701600       0.99380000
O       13.94070000      21.69191000       9.80630000      -0.21383800       0.04963400       1.09720700
O       15.23791000      16.41240000      12.76383000      -0.01144800       0.76816000      -0.30604700
O       19.63421000      20.84221000      12.62950000      -0.51149900      -0.19429500       0.87264300
O       10.45725000       2.82306000      13.57570000      -0.60862600       0.17276000      -0.27885600
O       17.39452000       3.96629000      16.55769000      -0.18940800      -0.59184300       1.15246000
O       14.89591000       0.04129000      12.98421000      -0.31221600       0.32047200      -1.03231900
O       14.65776000      22.40430000      19.01605000      -0.01009900       0.11054300      -0.39072000
O       12.39655000      16.61588000      13.94381000       0.16407300       1.18450300       0.02130600
O       20.45664000       0.37579000      15.25651000       0.65149000      -0.31788000       1.16064400
O        9.67797000      22.22775000      12.96392000       1.14846700       0.68660500      -0.13561200
O       14.92574000       6.85034000      16.82627000      -0.00942200      -0.25261100      -0.57427300
O       15.39146000       2.18778000      11.25162000      -1.10757800      -1.39700200       0.10278900
O       13.76792000       2.12355000      16.81671000      -1.24337500      -0.96638700       0.45679200
O       13.91273000      19.64063000      12.98408000      -0.87077200       0.18629200       0.97699800
O       19.60399000      20.23329000      17.35315000      -0.30599200       0.27521300      -0.48555500
Zr      15.80785000      12.49643000      15.31336000      -0.36786400       0.31996900       0.61120700
O       15.95622000      10.41587000      15.53857000      -0.33531200       0.04081900      -0.07470200
O       15.70805000      13.52692000      17.00126000      -0.36210500      -0.54436500       0.37439100
