74
Lattice="30.0 0.0 0.0 0.0 22.52911 0.0 0.0 0.0 30.0" Properties=species:S:1:pos:R:3:forces:R:3 energy=-670.75830004 pbc="T T T"
Zr      15.57548000       2.76722000      16.20360000       1.16244000       0.35831600      -0.36900700
Zr      13.84618000       0.75546000      11.00631000       0.13097000      -0.58864800       0.73264600
Zr      13.34773000       0.24204000      17.39237000       1.36475500       0.28401000       0.33998500
Zr      11.68858000      18.45014000      13.40393000       0.38492800      -0.40462800      -0.57963800
Zr      19.43391000       0.00006000      13.69362000      -0.98492800       0.84224900      -0.67591800
Zr      18.57557000      18.48153000      16.66229000      -0.60841200       0.04968300       0.87528500
Zr      11.68757000       2.75318000      15.06615000       1.08416100       1.96143800      -1.94659600
Zr       9.74404000      20.74142000      14.28082000      -1.17999500       1.17671800      -1.01740000
Zr      16.67421000       5.73623000      17.36265000       0.81799200      -0.83075700       0.45501500
Zr      16.12496000       1.79037000      13.09717000      -0.84003900      -0.00609600       0.58496800
Zr      16.57105000       0.37234000      19.02895000      -0.57598700       0.50359300       1.30749100
Zr      15.62745000      18.33766000      12.40127000       1.28023200       0.11167400       0.86372900
Zr      10.28384000       0.73443000      16.93650000      -0.74469600      -2.18019300      -2.37079800
Zr      11.00541000       1.32846000      12.33976000      -1.05522000      -0.48394000       1.69579500
Zr      15.88919000       8.30389000      15.70572000       0.31649300      -0.01648300      -0.37972200
Zr      16.35236000      21.09500000      15.72012000       0.61680300      -0.42151700      -0.34148700
Zr      13.34399000      20.03281000      10.96316000      -1.61632000       3.04148800       0.43427300
Zr      16.82138000      15.10163000      16.46094000       0.42642000      -0.32793900      -0.42239500
Zr      14.52072000       5.46819000      15.01220000      -1.08936500      -1.21358600       0.10690400
Zr      18.05399000       2.99332000      18.50223000      -0.42646900       0.34419500      -0.25824000
Zr      13.18878000      21.51390000      14.03652000       0.98254600       2.46175600      -1.87361300
Zr      14.13615000      15.62408000      14.14098000       1.67038600      -2.26575500       1.05222200
Zr      19.34150000      22.18351000      16.78444000       0.40289500       0.64210600       0.69931300
Zr      18.46194000      19.23138000      13.22691000      -0.24067800       0.95894100      -0.01148300
O       11.89085000       0.30007000      15.74016000      -1.14031200       0.89831200       0.42130800
O       12.04926000       1.67818000      10.73406000       0.65146300      -0.14248000      -0.16442200
O       15.33393000      16.08827000      15.71989000      -0.54089800       0.19127200      -0.64014600
O       18.31232000      21.56396000      15.07783000      -0.52531500       0.22380300      -0.40081100
O       17.35530000      13.67806000      15.09820000       0.32173600       1.07175800      -0.13659200
O       11.65469000      20.24577000      14.47069000       1.09449200       0.48982400       0.62646100
O       15.47094000       3.62331000      14.26327000      -0.33630100       0.05403100      -0.24617800
O       17.16206000      21.92671000      17.47799000       1.07622700      -0.61809500      -1.40577900
O       16.55628000      19.79902000      13.79300000       0.50815200      -0.37723600      -0.20802400
O       11.51351000      22.50608000      18.20880000       0.03480200       1.01906800       0.87918700
O       12.53037000      21.76193000      12.08981000       0.11154900       0.17689000       0.10304600
O       17.48529000       7.30116000      16.43386000      -0.33579000       0.36345800      -0.47740000
O       16.80285000      19.36805000      16.58756000       0.01592900       0.32847100      -0.35352300
O       14.87215000      18.93522000      10.74287000       1.05760500      -1.16810000      -0.86217300
O       16.19266000       2.03554000      18.11443000       0.34100700       0.99177900      -0.63584200
O       12.51606000       1.41978000      13.63268000       0.51639700      -0.70779700      -0.16829000
O        9.81371000      18.74007000      13.79631000      -0.79121500       0.24799700      -0.04867000
O       19.23766000       1.57551000      17.55231000      -0.35323700      -0.78655000       0.11951600
O       18.09042000       1.42383000      13.05119000       0.57356000      -1.04536100       0.09668100
O       18.07859000      16.59657000      17.22281000      -0.09283200       0.10740100      -0.15799400
O       17.62902000      18.15787000      11.85890000      -0.86195700       0.41789100       0.63627800
O        9.27289000      21.45731000      16.01903000       0.62903400       1.93529700       0.90447100
O       12.70831000       4.53848000      15.18473000       0.65007900      -0.11751500      -0.26545600
O       17.84415000       1.61469000      19.95379000      -0.16711000      -0.23068500       0.46416500
O       14.36799000      21.55230000      15.83458000      -0.61561300      -0.22180800       0.32647200
O       11.73873000      18.98964000      11.52128000      -0.16806600      -0.71920800      -0.47805800
O       14.33828000      13.53810000      14.37252000       0.17089000       0.97454200      -0.25748800
O       18.94581000      18.09892000      14.79154000       0.33581700       0.58894500      -0.26607700
O       10.14955000       2.77478000      16.28231000       0.45697000      -3.20551400       1.89449900
O       15.20659000       7.17293000      14.19553000       0.46026500       0.53676000       0.33791900
O       17.50350000       4.96545000      19.07730000      -0.12105100      -0.69690000      -1.02165200
O       16.13420000       1.16092000      15.20617000       0.12564000      -0.60651700      -0.48691300
O       13.93565000      21.69323000       9.81835000      -0.12927600      -0.29405300       0.80625100
O       15.33183000      16.39839000      12.80302000      -0.57801300       0.79412100      -0.11449000
O       19.55333000      20.86244000      12.62563000      -0.13785600      -0.13758000       0.53710100
O       10.38462000       2.85595000      13.53091000       0.81741300      -0.58186900      -0.45535900
O       17.38264000       3.90365000      16.62171000      -0.36792600      -0.19876100       0.70754300
O       14.87128000       0.04756000      12.94078000       0.05718700       0.54339600      -0.09287000
O       14.66258000      22.38914000      18.95531000      -1.09832100       0.11650900      -0.72599100
O       12.49321000      16.64905000      13.96693000      -0.53087100       0.73520300      -0.06286200
O       20.54487000       0.33102000      15.29092000      -0.32456100      -0.63019600      -0.32065000
O        9.71664000      22.24993000      12.91113000       0.71506100      -0.59757000       0.88167300
O       14.94426000       6.88871000      16.83000000      -0.31779500      -0.17699700      -0.25464500
O       15.37090000       2.11068000      11.21847000      -0.31145800      -0.84312700       0.92055500
O       13.74471000       2.14657000      16.88073000      -1.09129200      -1.31257000       0.08060500
O       13.82532000      19.65325000      13.07605000       0.21755100      -0.46575100       0.28507000
O       19.59113000      20.22259000      17.34327000      -0.19958300      -0.04511400      -0.38252700
Zr      15.79952000      12.49857000      15.32580000      -0.69893300      -0.74266500      -0.21917600
O       15.91709000      10.40744000      15.54688000      -0.22472600      -0.47790300      -0.00080800
O       15.70103000      13.50820000      16.96639000      -0.15805500       0.33906100       1.38247400
