74
Lattice="30.0 0.0 0.0 0.0 22.52911 0.0 0.0 0.0 30.0" Properties=species:S:1:pos:R:3:forces:R:3 energy=-671.71631265 pbc="T T T"
Zr      15.58212000       2.76888000      16.19663000       0.59326400       0.18687400       0.32389800
Zr      13.84232000       0.74649000      11.01068000      -0.28668700      -0.58766800       0.84033600
Zr      13.35662000       0.25435000      17.38681000       0.52507500      -0.46342400       0.52823500
Zr      11.69109000      18.44121000      13.39579000       0.28178200       0.12465300      -0.07982500
Zr      19.42746000       0.00344000      13.68699000      -0.39649300       0.53768100      -0.00379700
Zr      18.57093000      18.47136000      16.66913000      -0.37294800       0.50519300       0.40667100
Zr      11.70568000       2.77259000      15.04730000      -0.53717700       1.66562700      -0.68331900
Zr       9.74313000      20.75575000      14.28093000      -0.43696200       0.46711200      -0.57028500
Zr      16.67045000       5.73623000      17.36913000       0.64105200      -0.65197100       0.21074600
Zr      16.12728000       1.79376000      13.10670000      -0.74905500      -0.32206000       0.53309200
Zr      16.57471000       0.37981000      19.02584000      -0.80633400       0.12434500       0.54568100
Zr      15.63364000      18.33545000      12.40727000       0.96655500       0.44626500       0.82033800
Zr      10.28721000       0.67487000      16.92548000      -1.26855400      -0.52008200      -2.18909900
Zr      10.99715000       1.32130000      12.34787000      -1.19043200      -0.23575100       1.12508100
Zr      15.88350000       8.30895000      15.70355000       0.30953100      -0.28766300      -0.39133400
Zr      16.35384000      21.09285000      15.70488000       0.57204700      -0.34517600      -0.22487500
Zr      13.33466000      20.04212000      10.96696000      -1.00764000       1.97463400       0.70257800
Zr      16.82245000      15.09928000      16.45581000      -0.11251400       0.06794700      -0.43868800
Zr      14.52411000       5.46486000      15.01972000      -0.93160000      -0.85118500       0.21341400
Zr      18.05012000       2.99699000      18.49497000      -0.17902600      -0.09958900      -0.11542200
Zr      13.19707000      21.54624000      14.02971000       0.53250400       1.72292200      -1.43108000
Zr      14.13496000      15.61820000      14.14513000       1.71423800      -1.66093800       0.76543900
Zr      19.35331000      22.18063000      16.78842000       0.30157400       0.44421300       0.40808700
Zr      18.45950000      19.24100000      13.22596000      -0.17380100       0.69887800       0.43699000
O       11.84451000       0.32853000      15.74326000      -0.38064100       0.60696600      -0.03376300
O       12.05355000       1.67347000      10.74056000       0.60633600      -0.17314000      -0.15603600
O       15.30313000      16.11013000      15.71660000      -0.05023800      -0.22261100      -0.37464600
O       18.30778000      21.58614000      15.07703000      -0.53256500       0.18841300      -0.49114600
O       17.34836000      13.70666000      15.07794000       0.02971700       0.82293100       0.09806200
O       11.66883000      20.23235000      14.49440000       0.53400100       0.88718700       0.42573300
O       15.44238000       3.63114000      14.29722000      -0.08254100      -0.14098300      -0.69617300
O       17.17811000      21.93086000      17.44888000       0.72223500      -0.23272300      -0.66783700
O       16.56444000      19.79693000      13.79441000       0.35617200      -0.18672700      -0.09270700
O       11.49343000       0.01715000      18.22630000       0.59189100       0.56766700       1.04080700
O       12.54361000      21.72947000      12.09127000      -0.00836300       0.30795600      -0.05638900
O       17.47602000       7.28536000      16.40991000      -0.21940300       0.28432900      -0.32558200
O       16.82003000      19.39927000      16.59401000      -0.05550300       0.00371400      -0.31977200
O       14.88878000      18.91196000      10.73677000       0.26538900      -0.54625500      -0.63054700
O       16.20388000       2.05608000      18.10557000       0.17159100       0.59390100      -0.30066500
O       12.48995000       1.38265000      13.61987000       0.97907600      -0.64655100       0.15738300
O        9.80827000      18.72168000      13.78971000      -0.82536900       0.84115100       0.09912700
O       19.22081000       1.54237000      17.54799000      -0.30175400      -0.35258800       0.26911500
O       18.10306000       1.39052000      13.06542000      -0.06563400      -0.46984100      -0.13114900
O       18.07276000      16.61285000      17.23460000      -0.28366700      -0.39768000      -0.16831800
O       17.61575000      18.16468000      11.88410000      -0.68176100       0.19205700       0.22407200
O        9.31278000      21.52577000      16.04554000       0.35823100       1.19092000       0.31521000
O       12.73559000       4.55337000      15.17633000       0.44375100      -0.18418700      -0.27544700
O       17.84994000       1.58409000      19.95550000      -0.23683300      -0.10385700       0.37181400
O       14.35385000      21.52681000      15.84803000      -0.47703100      -0.00725500       0.07620400
O       11.72677000      18.97933000      11.53360000       0.04284700      -0.45934400      -1.01610200
O       14.35300000      13.53411000      14.37664000       0.12051400       0.79685200      -0.22588200
O       18.95815000      18.09760000      14.78371000       0.23213800       0.62845300       0.01290500
O       10.13622000       2.86092000      16.28357000       1.45808300      -3.48329600       0.96013400
O       15.22032000       7.16846000      14.20535000       0.39110600       0.58885200       0.12305300
O       17.52379000       4.93576000      19.05139000      -0.11571400      -0.35875300      -0.58114100
O       16.15200000       1.16004000      15.22340000      -0.02662800      -0.51886600      -0.80679600
O       13.92959000      21.68591000       9.84892000      -0.01926500      -0.44484800       0.32588000
O       15.34482000      16.41962000      12.81003000      -0.84334700       0.17923100       0.17289700
O       19.52294000      20.86389000      12.64294000       0.11270700      -0.02754100       0.14837000
O       10.38313000       2.85067000      13.50435000       0.93706200      -0.47547600      -0.35326000
O       17.36800000       3.87733000      16.66556000      -0.27443500      -0.04665900       0.08817200
O       14.86403000       0.06557000      12.92100000       0.18449000       0.46574400       0.28529500
O       14.63365000      22.38807000      18.91549000      -0.31586300       0.22942100      -0.34133300
O       12.50823000      16.68436000      13.97214000      -0.24271200       0.08318900       0.03515800
O       20.56552000       0.29872000      15.29754000      -0.42888800      -0.51576900      -0.55823900
O        9.75278000      22.24304000      12.91889000       0.39369400      -0.78399100       0.87748100
O       14.94100000       6.89453000      16.82176000      -0.31359300      -0.25489200      -0.04150200
O       15.35145000       2.05822000      11.23438000       0.24718600      -0.15470900       0.84747200
O       13.70122000       2.11344000      16.90445000      -0.16692900      -0.29892800      -0.44560500
O       13.80139000      19.64451000      13.11585000       0.43250800      -0.37528400      -0.15654300
O       19.58049000      20.21948000      17.32770000      -0.10664400      -0.28219200      -0.21357400
Zr      15.79332000      12.49596000      15.32889000      -0.53999100      -0.49992100       0.12784900
O       15.89772000      10.39148000      15.54914000      -0.18942400      -0.06564600      -0.05016600
O       15.69261000      13.50915000      16.99575000       0.18532300       0.31154000       0.70347500
