74
Lattice="30.0 0.0 0.0 0.0 22.52911 0.0 0.0 0.0 30.0" Properties=species:S:1:pos:R:3:forces:R:3 energy=-672.3902455 pbc="T T T"
Zr      15.58743000       2.77031000      16.19367000       0.26832300      -0.11423400       0.42396100
Zr      13.83959000       0.74009000      11.01533000      -0.40352200      -0.60165700       0.91213700
Zr      13.36296000       0.25970000      17.38531000      -0.36256200      -1.05011200       0.51334600
Zr      11.69322000      18.43674000      13.39114000       0.12260900       0.55800100       0.05194100
Zr      19.42280000       0.00680000      13.68330000      -0.10789900       0.23518200       0.18064200
Zr      18.56738000      18.46729000      16.67401000      -0.27098600       0.68961000       0.10868400
Zr      11.71413000       2.78758000      15.03512000      -1.02424300       1.11408900       0.00881100
Zr       9.74124000      20.76478000      14.27929000       0.04710800      -0.00703100       0.01827900
Zr      16.67031000       5.73436000      17.37319000       0.46308200      -0.44856100      -0.07011100
Zr      16.12638000       1.79472000      13.11325000      -0.59374400      -0.49379600       0.55986700
Zr      16.57442000       0.38420000      19.02592000      -0.87813500      -0.07557300      -0.16852100
Zr      15.63968000      18.33547000      12.41275000       0.52658700       0.69002700       0.56943200
Zr      10.28559000       0.64165000      16.91351000      -1.19939800       0.55043500      -1.32697000
Zr      10.98950000       1.31676000      12.35546000      -0.80592500      -0.32238600       0.64986200
Zr      15.88137000       8.31088000      15.70130000       0.23051200      -0.40060500      -0.33852900
Zr      16.35623000      21.09072000      15.69617000       0.37851200      -0.22400100      -0.27265700
Zr      13.32675000      20.05284000      10.97089000      -0.42061100       0.99570800       0.80599800
Zr      16.82282000      15.09815000      16.45188000      -0.37696000       0.36002100      -0.32859800
Zr      14.52326000       5.46063000      15.02426000      -0.61831000      -0.50164100       0.19230600
Zr      18.04751000       2.99874000      18.49078000       0.00620900      -0.44288400      -0.02047200
Zr      13.20305000      21.56836000      14.02198000       0.39522700       1.37261000      -0.98892300
Zr      14.13915000      15.61027000      14.14955000       1.45017600      -1.08929000       0.53996000
Zr      19.36042000      22.18040000      16.79173000       0.17151200       0.16321800       0.07987900
Zr      18.45772000      19.24811000      13.22658000      -0.09823900       0.58327300       0.60091000
O       11.81303000       0.35368000      15.74490000       0.28725200       0.38935000      -0.45573700
O       12.06552000       1.66826000      10.74153000       0.33977100      -0.15265100       0.01541300
O       15.28541000      16.11868000      15.70852000       0.22423300      -0.37389200      -0.15238600
O       18.29685000      21.60092000      15.06889000      -0.43922000       0.16897500      -0.41515900
O       17.34556000      13.73525000      15.06845000      -0.21792100       0.44948700       0.16355900
O       11.68563000      20.23892000      14.51398000       0.03355300       0.84821600       0.18878800
O       15.42563000       3.63328000      14.30461000       0.04090800      -0.20012700      -0.78240100
O       17.19867000      21.92879000      17.42180000       0.38676900       0.15304000       0.07396400
O       16.57464000      19.79259000      13.79353000       0.19000400      -0.01458300       0.03830500
O       11.49148000       0.04815000      18.25185000       0.79884600       0.37367500       0.83133500
O       12.55058000      21.71713000      12.09135000      -0.12441700       0.35729500      -0.17253900
O       17.46746000       7.28166000      16.39186000      -0.10030300       0.12784600      -0.15344600
O       16.82831000      19.41620000      16.59224000      -0.06263200      -0.25653800      -0.23462300
O       14.90297000      18.89001000      10.72319000      -0.28773400      -0.08597900      -0.30389200
O       16.21277000       2.07694000      18.09565000       0.07322000       0.12901900       0.06226400
O       12.49114000       1.35262000      13.61510000       0.92274300      -0.45651900       0.22162300
O        9.79228000      18.72472000      13.78759000      -0.55818200       1.08088000       0.11691600
O       19.20701000       1.51865000      17.54985000      -0.23940900      -0.03150400       0.36799000
O       18.10954000       1.36465000      13.07109000      -0.47048300      -0.02404800      -0.29494600
O       18.06540000      16.61579000      17.23811000      -0.33109100      -0.57358300      -0.16398500
O       17.59762000      18.17165000      11.90154000      -0.39157400       0.01094900      -0.05406300
O        9.33972000      21.58174000      16.06528000      -0.11813500       0.24197600      -0.31173800
O       12.75732000       4.55836000      15.16748000       0.16206900      -0.21049000      -0.24429300
O       17.84927000       1.56611000      19.96249000      -0.33852000      -0.05013300       0.26434900
O       14.33858000      21.51293000      15.85667000      -0.26736400       0.06728300      -0.10767100
O       11.72084000      18.96608000      11.52468000       0.12989200      -0.34468200      -0.98966000
O       14.36280000      13.54495000      14.37516000       0.18539900       0.42266800      -0.12960200
O       18.96855000      18.10696000      14.77942000       0.19016100       0.57589800       0.25140900
O       10.15119000       2.85065000      16.30100000       1.71967100      -3.15271900       0.37714400
O       15.23391000       7.17544000      14.21278000       0.26400700       0.44445600      -0.02600600
O       17.53265000       4.91393000      19.02786000      -0.08166000      -0.05472100      -0.17339300
O       16.16114000       1.15118000      15.22003000      -0.16305300      -0.25362000      -0.74939900
O       13.92595000      21.67518000       9.87089000       0.06723600      -0.39755300      -0.01385800
O       15.33852000      16.43456000      12.81608000      -0.86950100      -0.20227100       0.26849400
O       19.50838000      20.86405000      12.65498000       0.26120400       0.02620400      -0.09786400
O       10.39718000       2.84018000      13.48452000       0.78680000      -0.21711000      -0.22820200
O       17.35578000       3.86252000      16.69089000      -0.15250600       0.09851700      -0.35242700
O       14.86296000       0.08260000      12.91465000       0.19107300       0.27992400       0.45774700
O       14.61236000      22.39103000      18.88860000       0.43299600       0.26066500       0.11620400
O       12.51180000      16.70526000      13.97531000      -0.06082900      -0.26475400       0.09135300
O       20.56970000       0.27325000      15.29246000      -0.34169600      -0.36767300      -0.46298600
O        9.77863000      22.22720000      12.93698000       0.21161000      -0.60074800       0.61645100
O       14.93425000       6.89359000      16.81645000      -0.24806300      -0.32716700       0.06300100
O       15.34436000       2.02713000      11.25640000       0.48915900       0.28268700       0.59895200
O       13.67435000       2.08991000      16.91047000       0.41705300       0.58937100      -0.78249500
O       13.79539000      19.63375000      13.13493000       0.42432300      -0.24182500      -0.38891200
O       19.57304000      20.21364000      17.31583000      -0.04104600      -0.36294200      -0.09967900
Zr      15.78848000      12.49312000      15.33081000      -0.40058900      -0.11240800       0.45190200
O       15.88440000      10.38149000      15.54958000      -0.16649200       0.29108700      -0.09289300
O       15.69068000      13.51464000      17.02345000       0.35484300       0.11490200       0.10519500
