74
Lattice="30.0 0.0 0.0 0.0 22.52911 0.0 0.0 0.0 30.0" Properties=species:S:1:pos:R:3:forces:R:3 energy=-672.60615647 pbc="T T T"
Zr      15.58959000       2.77079000      16.19290000       0.15608200      -0.24644000       0.38971300
Zr      13.83833000       0.73736000      11.01765000      -0.38889400      -0.60349400       0.93456000
Zr      13.36511000       0.26096000      17.38514000      -0.71022800      -1.21912900       0.47455100
Zr      11.69410000      18.43547000      13.38948000       0.06066100       0.72346400       0.04971400
Zr      19.42100000       0.00822000      13.68208000      -0.03164400       0.12290800       0.19019100
Zr      18.56589000      18.46630000      16.67588000      -0.24369400       0.71436300       0.01897600
Zr      11.71650000       2.79386000      15.03064000      -1.07071600       0.83381000       0.23712000
Zr       9.74053000      20.76810000      14.27863000       0.20972300      -0.21221200       0.26567100
Zr      16.67062000       5.73333000      17.37465000       0.38736200      -0.36518300      -0.19290400
Zr      16.12560000       1.79473000      13.11601000      -0.52505800      -0.53054200       0.58379200
Zr      16.57370000       0.38576000      19.02593000      -0.87810200      -0.13622300      -0.41030400
Zr      15.64230000      18.33594000      12.41517000       0.30236600       0.75917300       0.43428000
Zr      10.28412000       0.62991000      16.90811000      -1.01748700       1.01063000      -0.84683900
Zr      10.98611000       1.31492000      12.35873000      -0.56866100      -0.41830700       0.46639900
Zr      15.88077000       8.31130000      15.70024000       0.18743800      -0.41980900      -0.30209100
Zr      16.35739000      21.08978000      15.69285000       0.28138500      -0.16392200      -0.29642700
Zr      13.32352000      20.05755000      10.97287000      -0.20964400       0.60023800       0.82641600
Zr      16.82272000      15.09796000      16.45021000      -0.45481500       0.46978200      -0.25919800
Zr      14.52246000       5.45869000      15.02604000      -0.45852700      -0.35783100       0.16355900
Zr      18.04655000       2.99910000      18.48925000       0.07238300      -0.57873500       0.02167500
Zr      13.20551000      21.57736000      14.01842000       0.36374000       1.26744500      -0.80311200
Zr      14.14174000      15.60655000      14.15156000       1.30251100      -0.86931000       0.46026600
Zr      19.36312000      22.18047000      16.79303000       0.10973100       0.03778700      -0.05281800
Zr      18.45699000      19.25111000      13.22721000      -0.06052100       0.54111300       0.63070600
O       11.80232000       0.36450000      15.74397000       0.53795600       0.29977200      -0.59486900
O       12.07145000       1.66574000      10.74180000       0.20164800      -0.13482800       0.09547300
O       15.27973000      16.12034000      15.70480000       0.31175600      -0.39760100      -0.05965600
O       18.29104000      21.60696000      15.06418000      -0.38581500       0.15787600      -0.35901600
O       17.34385000      13.74770000      15.06566000      -0.29141200       0.28049300       0.15587300
O       11.69221000      20.24480000      14.52200000      -0.13769500       0.77919400       0.08198700
O       15.41967000       3.63327000      14.30412000       0.07713900      -0.20557600      -0.76450800
O       17.20792000      21.92837000      17.41177000       0.26029100       0.27475200       0.32497600
O       16.57923000      19.79082000      13.79327000       0.11588100       0.05295600       0.09264100
O       11.49391000       0.06098000      18.26466000       0.81560500       0.32228700       0.65745100
O       12.55269000      21.71410000      12.09076000      -0.17244200       0.37403400      -0.20878700
O       17.46387000       7.28097000      16.38459000      -0.04969800       0.05718700      -0.07818200
O       16.83104000      19.42147000      16.59057000      -0.06707100      -0.34583800      -0.19665600
O       14.90732000      18.88140000      10.71679000      -0.44717900       0.06103900      -0.14653900
O       16.21635000       2.08536000      18.09204000       0.02979300      -0.04602400       0.19454100
O       12.49542000       1.33977000      13.61427000       0.82271100      -0.35142800       0.19791600
O        9.78400000      18.73005000      13.78730000      -0.41369900       1.12471400       0.10549500
O       19.20101000       1.50972000      17.55194000      -0.20140800       0.07912100       0.39365000
O       18.11025000       1.35488000      13.07206000      -0.58280700       0.13238700      -0.35137300
O       18.06142000      16.61463000      17.23871000      -0.32298600      -0.58851900      -0.16392500
O       17.58925000      18.17435000      11.90782000      -0.24271600      -0.05072400      -0.14640300
O        9.34937000      21.60371000      16.07163000      -0.38196800      -0.21558300      -0.57111500
O       12.76605000       4.55932000      15.16327000       0.02420600      -0.21671800      -0.22464900
O       17.84772000       1.55938000      19.96618000      -0.37196200      -0.02220800       0.21989600
O       14.33181000      21.50815000      15.85949000      -0.17028900       0.08411300      -0.17043900
O       11.71917000      18.95982000      11.51735000       0.14732800      -0.32084600      -0.88564600
O       14.36703000      13.55090000      14.37402000       0.21510800       0.23939400      -0.08717500
O       18.97310000      18.11273000      14.77872000       0.17783700       0.54507700       0.32744000
O       10.16344000       2.83380000      16.30926000       1.71291100      -2.94822400       0.19202200
O       15.24000000       7.17990000      14.21547000       0.20057300       0.35924300      -0.08352900
O       17.53548000       4.90559000      19.01834000      -0.06658300       0.07285300      -0.00699900
O       16.16388000       1.14673000      15.21568000      -0.21625500      -0.13558300      -0.67279800
O       13.92485000      21.66963000       9.87902000       0.10306600      -0.33226200      -0.13789000
O       15.33270000      16.43940000      12.81930000      -0.83429300      -0.29979100       0.26544500
O       19.50409000      20.86417000      12.65910000       0.30967300       0.03885500      -0.18043000
O       10.40559000       2.83529000      13.47634000       0.68249400      -0.07999100      -0.16535100
O       17.35065000       3.85747000      16.69892000      -0.09240800       0.16142000      -0.50601200
O       14.86336000       0.09004000      12.91411000       0.17025400       0.17243000       0.50341800
O       14.60586000      22.39314000      18.87900000       0.70013700       0.25634700       0.30516000
O       12.51272000      16.71196000      13.97678000      -0.02694600      -0.34621600       0.10281300
O       20.56973000       0.26245000      15.28864000      -0.28230200      -0.29914100      -0.38136200
O        9.78895000      22.21885000      12.94625000       0.14915800      -0.44812900       0.44947200
O       14.93075000       6.89197000      16.81471000      -0.20960200      -0.35047000       0.08940400
O       15.34364000       2.01675000      11.26700000       0.52480600       0.41932000       0.45728200
O       13.66593000       2.08314000      16.90971000       0.59919100       0.88522300      -0.88392700
O       13.79498000      19.62878000      13.14039000       0.39053400      -0.18104700      -0.45823100
O       19.57014000      20.21010000      17.31105000      -0.01553200      -0.36491400      -0.06010000
Zr      15.78643000      12.49196000      15.33178000      -0.34657200       0.04888800       0.56685100
O       15.87890000      10.37880000      15.54939000      -0.15620300       0.41373500      -0.10857400
O       15.69131000      13.51725000      17.03434000       0.39339100       0.02175800      -0.10450800
