74
Lattice="30.0 0.0 0.0 0.0 22.52911 0.0 0.0 0.0 30.0" Properties=species:S:1:pos:R:3:forces:R:3 energy=-672.7014087 pbc="T T T"
Zr      15.59066000       2.77099000      16.19259000       0.10313800      -0.31211700       0.36003000
Zr      13.83765000       0.73593000      11.01893000      -0.36730500      -0.60236300       0.94401800
Zr      13.36605000       0.26138000      17.38513000      -0.87353700      -1.27863500       0.44895400
Zr      11.69454000      18.43496000      13.38868000       0.03149600       0.80142500       0.03825500
Zr      19.42012000       0.00894000      13.68152000      -0.00355200       0.07160700       0.18194400
Zr      18.56512000      18.46593000      16.67680000      -0.23263600       0.71447300      -0.01753700
Zr      11.71749000       2.79706000      15.02850000      -1.06420600       0.68379900       0.34069800
Zr       9.74022000      20.76969000      14.27834000       0.28288600      -0.31970800       0.38907900
Zr      16.67083000       5.73277000      17.37533000       0.34987100      -0.32488600      -0.25377800
Zr      16.12514000       1.79466000      13.11744000      -0.48976600      -0.54040600       0.59895900
Zr      16.57321000       0.38649000      19.02587000      -0.87128900      -0.16346000      -0.51702800
Zr      15.64363000      18.33629000      12.41642000       0.18076000       0.78442100       0.36138200
Zr      10.28324000       0.62435000      16.90533000      -0.89103700       1.24506100      -0.58898700
Zr      10.98436000       1.31396000      12.36040000      -0.43704000      -0.47926900       0.37732900
Zr      15.88052000       8.31144000      15.69968000       0.16425500      -0.42259900      -0.28076400
Zr      16.35800000      21.08930000      15.69118000       0.23061200      -0.13235500      -0.30550000
Zr      13.32191000      20.05995000      10.97396000      -0.11381000       0.40538500       0.83284000
Zr      16.82260000      15.09793000      16.44935000      -0.48852200       0.52164500      -0.22067900
Zr      14.52199000       5.45769000      15.02693000      -0.37293600      -0.28692500       0.14505800
Zr      18.04610000       2.99919000      18.48850000       0.10260700      -0.64511600       0.04400800
Zr      13.20677000      21.58194000      14.01656000       0.34955600       1.22056800      -0.70877300
Zr      14.14320000      15.60460000      14.15261000       1.22025200      -0.76288500       0.42471400
Zr      19.36446000      22.18052000      16.79366000       0.07719000      -0.02510600      -0.11630300
Zr      18.45663000      19.25265000      13.22762000      -0.04026600       0.52049600       0.63805600
O       11.79755000       0.37005000      15.74300000       0.65463000       0.25339100      -0.65125300
O       12.07454000       1.66439000      10.74200000       0.12827700      -0.12380400       0.13560700
O       15.27723000      16.12080000      15.70293000       0.35078600      -0.40142300      -0.01225100
O       18.28785000      21.61004000      15.06156000      -0.35698900       0.15263300      -0.32783800
O       17.34276000      13.75403000      15.06445000      -0.32132900       0.19346600       0.14445700
O       11.69532000      20.24838000      14.52599000      -0.21339400       0.73619300       0.02820800
O       15.41683000       3.63309000      14.30320000       0.09192500      -0.20467800      -0.74492700
O       17.21267000      21.92840000      17.40714000       0.20014800       0.32555400       0.43490700
O       16.58157000      19.79000000      13.79321000       0.07736900       0.08631300       0.11962800
O       11.49582000       0.06752000      18.27151000       0.81198300       0.30104500       0.55548200
O       12.55356000      21.71296000      12.09029000      -0.19582500       0.38132700      -0.22409600
O       17.46207000       7.28070000      16.38097000      -0.02376200       0.02053500      -0.04035900
O       16.83230000      19.42373000      16.58958000      -0.07048300      -0.38460400      -0.17760400
O       14.90906000      18.87724000      10.71352000      -0.51328300       0.12589900      -0.06366600
O       16.21813000       2.08944000      18.09043000       0.00625500      -0.12768200       0.25470300
O       12.49826000       1.33318000      13.61404000       0.75797300      -0.29405400       0.17598100
O        9.77958000      18.73365000      13.78726000      -0.33597200       1.13428200       0.09596500
O       19.19790000       1.50543000      17.55331000      -0.17956000       0.12831000       0.40246800
O       18.11010000       1.35022000      13.07223000      -0.62562900       0.20280800      -0.37636000
O       18.05919000      16.61353000      17.23885000      -0.31338300      -0.58366900      -0.16419100
O       17.58493000      18.17562000      11.91076000      -0.16296700      -0.07765300      -0.18625000
O        9.35377000      21.61427000      16.07425000      -0.52884400      -0.45534400      -0.69912400
O       12.77034000       4.55960000      15.16102000      -0.04946300      -0.21775000      -0.21287000
O       17.84664000       1.55608000      19.96817000      -0.38523400      -0.00579800       0.19834000
O       14.32835000      21.50590000      15.86072000      -0.12027900       0.09037200      -0.19828100
O       11.71848000      18.95649000      11.51297000       0.15277900      -0.31319100      -0.81743500
O       14.36928000      13.55404000      14.37338000       0.22882000       0.14280200      -0.06640300
O       18.97548000      18.11602000      14.77866000       0.17239500       0.52876800       0.35882100
O       10.17094000       2.82293000      16.31347000       1.68517100      -2.82824200       0.11007400
O       15.24315000       7.18240000      14.21671000       0.16767000       0.31259200      -0.11124800
O       17.53679000       4.90157000      19.01367000      -0.05759900       0.13594400       0.07445700
O       16.16503000       1.14443000      15.21295000      -0.24096200      -0.07749100      -0.62506700
O       13.92439000      21.66663000       9.88287000       0.12174800      -0.28974900      -0.19602300
O       15.32911000      16.44151000      12.82110000      -0.80648500      -0.33339100       0.25387800
O       19.50227000      20.86427000      12.66096000       0.33101600       0.04346100      -0.21787300
O       10.41032000       2.83282000      13.47220000       0.62284100      -0.00458300      -0.13286900
O       17.34806000       3.85514000      16.70240000      -0.05939200       0.19241400      -0.57635400
O       14.86371000       0.09383000      12.91429000       0.15459900       0.11213600       0.52117500
O       14.60329000      22.39440000      18.87458000       0.81867300       0.25035100       0.39456700
O       12.51314000      16.71492000      13.97759000      -0.01811300      -0.37305200       0.10593100
O       20.56948000       0.25692000      15.28643000      -0.24808700      -0.26507700      -0.33331400
O        9.79412000      22.21436000      12.95119000       0.12180100      -0.35438600       0.35282100
O       14.92885000       6.89087000      16.81394000      -0.18812200      -0.36030400       0.09865100
O       15.34375000       2.01205000      11.27259000       0.52814000       0.47796600       0.37750700
O       13.66234000       2.08060000      16.90856000       0.67843000       1.00834200      -0.92507500
O       13.79513000      19.62618000      13.14265000       0.36796600      -0.14972900      -0.48789800
O       19.56871000      20.20806000      17.30867000      -0.00222700      -0.35915700      -0.04154400
Zr      15.78538000      12.49140000      15.33234000      -0.32013500       0.12770200       0.61985000
O       15.87609000      10.37784000      15.54921000      -0.15115000       0.46727400      -0.11554800
O       15.69196000      13.51856000      17.03957000       0.40642200      -0.02665200      -0.20020100
