74
Lattice="30.0 0.0 0.0 0.0 22.52911 0.0 0.0 0.0 30.0" Properties=species:S:1:pos:R:3:forces:R:3 energy=-673.07240169 pbc="T T T"
Zr      15.59596000       2.77133000      16.19155000      -0.13966200      -0.60815500       0.12168600
Zr      13.83385000       0.72804000      11.02665000      -0.13161000      -0.55933700       0.96596600
Zr      13.36899000       0.26140000      17.38574000      -1.47316500      -1.24113700       0.28209300
Zr      11.69669000      18.43387000      13.38481000      -0.06808400       1.11387000      -0.08373300
Zr      19.41585000       0.01245000      13.67901000       0.02483500      -0.10739600       0.01540900
Zr      18.56105000      18.46521000      16.68119000      -0.19809800       0.59918500      -0.11048300
Zr      11.72071000       2.81340000      15.01874000      -0.75481500      -0.14190000       0.71797900
Zr       9.73924000      20.77670000      14.27781000       0.55266000      -0.87926400       0.97302200
Zr      16.67234000       5.72961000      17.37813000       0.17493400      -0.15448500      -0.54174100
Zr      16.12220000       1.79344000      13.12541000      -0.31205700      -0.48832500       0.68116000
Zr      16.56948000       0.38978000      19.02460000      -0.75311700      -0.28151500      -0.88172700
Zr      15.65012000      18.33924000      12.42293000      -0.49592200       0.80020100      -0.01476400
Zr      10.27789000       0.59962000      16.89143000       0.03378000       2.29091600       0.70887600
Zr      10.97544000       1.30836000      12.36895000       0.28586400      -0.88348500      -0.04190300
Zr      15.87946000       8.31147000      15.69653000       0.03926200      -0.36633600      -0.14801900
Zr      16.36125000      21.08678000      15.68256000      -0.02161300       0.03109000      -0.30511200
Zr      13.31404000      20.07190000      10.98061000       0.26412900      -0.51863900       0.81949500
Zr      16.82120000      15.09875000      16.44492000      -0.60331100       0.73180500       0.00608600
Zr      14.51933000       5.45249000      15.03147000       0.08284500       0.03525500       0.02002200
Zr      18.04408000       2.99847000      18.48498000       0.20972600      -0.94132100       0.16837300
Zr      13.21341000      21.60614000      14.00655000       0.28385600       1.03905000      -0.25500800
Zr      14.15210000      15.59409000      14.15835000       0.74026900      -0.30079900       0.29705400
Zr      19.37102000      22.18057000      16.79641000      -0.10385800      -0.32448100      -0.37590400
Zr      18.45483000      19.26096000      13.23060000       0.07436000       0.40313200       0.60897900
O       11.78132000       0.39882000      15.73203000       1.05791900      -0.00373800      -0.73337600
O       12.08987000       1.65684000      10.74465000      -0.24111000      -0.05210800       0.30429500
O       15.26856000      16.11948000      15.69422000       0.48597600      -0.34442000       0.21171200
O       18.26949000      21.62636000      15.04626000      -0.19161600       0.11537100      -0.14174300
O       17.33436000      13.78565000      15.05956000      -0.38323000      -0.23516000       0.01322100
O       11.70783000      20.27182000      14.54508000      -0.46150300       0.46177600      -0.23799800
O       15.40395000       3.63041000      14.29237000       0.14222600      -0.15883800      -0.55402000
O       17.23700000      21.93187000      17.38947000      -0.06230600       0.44725300       0.78064400
O       16.59326000      19.78716000      13.79432000      -0.11423900       0.23609300       0.23527400
O       11.51223000       0.10193000      18.30853000       0.69671400       0.20975600      -0.06539800
O       12.55581000      21.71089000      12.08587000      -0.30129300       0.40458600      -0.26112400
O       17.45338000       7.27915000      16.36337000       0.09856100      -0.14322500       0.13891500
O       16.83779000      19.43098000      16.58336000      -0.11483200      -0.49753700      -0.09494700
O       14.91240000      18.85872000      10.69799000      -0.68520400       0.35609200       0.36038700
O       16.22656000       2.10739000      18.08548000      -0.12227700      -0.42907100       0.45342400
O       12.51799000       1.29918000      13.61413000       0.35087900       0.05823000      -0.00639400
O        9.75594000      18.76128000      13.78773000       0.05893000       1.02891400       0.00869500
O       19.18144000       1.48614000      17.56363000      -0.03236400       0.30317500       0.39004700
O       18.10345000       1.32999000      13.06943000      -0.66366400       0.44176400      -0.45340000
O       18.04571000      16.60319000      17.23808000      -0.20469300      -0.43937100      -0.16470200
O       17.56342000      18.18089000      11.92304000       0.27572200      -0.16532500      -0.31915900
O        9.36865000      21.65891000      16.07935000      -1.28495900      -1.58680300      -1.22585000
O       12.78994000       4.55898000      15.14825000      -0.43420300      -0.21186400      -0.14778300
O       17.83783000       1.54018000      19.97946000      -0.40171100       0.11695400       0.10773500
O       14.31097000      21.49577000      15.86468000       0.12390200       0.11231500      -0.28094200
O       11.71655000      18.93745000      11.48530000       0.15801200      -0.29546800      -0.35566300
O       14.38242000      13.56946000      14.36988000       0.26060600      -0.34487600       0.01888300
O       18.98857000      18.13668000      14.78185000       0.15171000       0.44627600       0.42982400
O       10.22198000       2.74617000      16.33426000       1.30078200      -2.05917100      -0.15901300
O       15.25962000       7.19683000      14.22146000      -0.00694200       0.05559500      -0.23528700
O       17.54279000       4.88394000      18.99249000      -0.02031600       0.42613800       0.43627800
O       16.16821000       1.13312000      15.19472000      -0.33895200       0.16358400      -0.29828000
O       13.92351000      21.64998000       9.89928000       0.21387500       0.00458600      -0.43667200
O       15.30488000      16.44860000      12.83190000      -0.55899600      -0.33273300       0.09017500
O       19.49656000      20.86515000      12.66770000       0.40225600       0.04977200      -0.35265800
O       10.43816000       2.82169000      13.45125000       0.27771000       0.41766900       0.06927000
O       17.33532000       3.84588000      16.71352000       0.12956100       0.33590700      -0.82465400
O       14.86655000       0.11254000      12.91996000       0.02991500      -0.24709100       0.55155500
O       14.59916000      22.40268000      18.85744000       1.16377700       0.19825000       0.72105000
O       12.51499000      16.72591000      13.98248000      -0.06087600      -0.37675300       0.09434600
O       20.56650000       0.22794000      15.27329000      -0.05605900      -0.09235600      -0.04804500
O        9.82013000      22.19062000      12.97714000       0.00995100       0.26050400      -0.24447600
O       14.91818000       6.88220000      16.81113000      -0.06607300      -0.38202600       0.09995500
O       15.34885000       1.99393000      11.30220000       0.38788600       0.65090800      -0.09113300
O       13.65164000       2.07818000      16.89434000       0.93058200       1.24996800      -0.99928000
O       13.79886000      19.61257000      13.14903000       0.21410700       0.00951100      -0.58442900
O       19.56186000      20.19502000      17.29687000       0.06304200      -0.25493700       0.03644500
Zr      15.77979000      12.48902000      15.33614000      -0.18137600       0.47657100       0.82639300
O       15.86105000      10.37783000      15.54720000      -0.11733800       0.61393700      -0.13698700
O       15.69885000      13.52413000      17.06233000       0.40543900      -0.25893900      -0.55496400
