74
Lattice="30.0 0.0 0.0 0.0 22.52911 0.0 0.0 0.0 30.0" Properties=species:S:1:pos:R:3:forces:R:3 energy=-673.44318263 pbc="T T T"
Zr      15.60373000       2.76826000      16.19015000      -0.38850400      -0.84504300      -0.35681100
Zr      13.82729000       0.71200000      11.04482000       0.44974200      -0.31119800       0.86166600
Zr      13.36557000       0.25523000      17.38814000      -1.34801500      -0.17431300      -0.01690100
Zr      11.69986000      18.43853000      13.37775000      -0.06637300       1.28924600      -0.32182800
Zr      19.40871000       0.01767000      13.67454000      -0.25646400      -0.09213100      -0.52851000
Zr      18.55320000      18.46707000      16.68792000      -0.18597900       0.11946100       0.02662600
Zr      11.72266000       2.83864000      15.00665000       0.47238700      -1.41228600       0.60416700
Zr       9.74083000      20.78287000      14.28283000       0.65192500      -1.31127300       1.39338400
Zr      16.67570000       5.72358000      17.37947000       0.00948300      -0.07857500      -0.80428600
Zr      16.11573000       1.78896000      13.14246000      -0.11751500      -0.08460700       0.66702800
Zr      16.55945000       0.39350000      19.01753000      -0.17353900      -0.43306600      -0.84619500
Zr      15.65727000      18.34841000      12.43323000      -1.50044500       0.50805300      -0.51649000
Zr      10.27050000       0.57175000      16.87327000       1.55560800       1.91618000       1.67383500
Zr      10.96305000       1.29357000      12.38244000       1.25054400      -1.52882600      -0.57368700
Zr      15.87782000       8.30966000      15.69068000      -0.13441200      -0.08417100       0.08885200
Zr      16.36624000      21.08296000      15.66676000      -0.36210100       0.22690300      -0.08433600
Zr      13.30270000      20.08789000      10.99609000       0.48823000      -1.60250400       0.61793700
Zr      16.81547000      15.10426000      16.43791000      -0.56299000       0.71016600       0.36780500
Zr      14.51584000       5.44433000      15.03888000       0.65438400       0.33517000      -0.25962700
Zr      18.04191000       2.99180000      18.48030000       0.16350600      -1.12564400       0.41839000
Zr      13.22586000      21.65186000      13.98900000       0.08640900       0.83930300       0.35352700
Zr      14.17030000      15.57531000      14.16953000      -0.20741100       0.11846500       0.31287100
Zr      19.38103000      22.17859000      16.79875000      -0.42844600      -0.64055100      -0.48959300
Zr      18.45244000      19.27682000      13.23883000       0.27262800       0.20148700       0.39706100
O       11.78807000       0.44393000      15.69311000       0.92958000      -0.58678700      -0.04445900
O       12.10564000       1.64320000      10.75918000      -0.63714100       0.05251900       0.36944900
O       15.26979000      16.10748000      15.68763000       0.41490000      -0.02489800       0.41290300
O       18.23420000      21.65674000      15.01773000       0.11371400       0.04563900       0.16723900
O       17.30883000      13.82813000      15.05042000      -0.21421200      -0.72603200      -0.31970000
O       11.71404000      20.32328000      14.56751000      -0.34578700      -0.07520600      -0.57145800
O       15.38729000       3.62164000      14.25874000       0.14846900       0.02916500      -0.04305800
O       17.27413000      21.95097000      17.38474000      -0.31692000       0.18907600       0.59501200
O       16.60783000      19.79062000      13.80403000      -0.35943100       0.35581400       0.28995200
O       11.56020000       0.16489000      18.36340000       0.29282200       0.04774900      -1.01795500
O       12.54947000      21.72031000      12.07048000      -0.37096400       0.32861000      -0.17291800
O       17.44265000       7.27145000      16.33956000       0.19759200      -0.25171500       0.31871500
O       16.84243000      19.42750000      16.57023000      -0.28747200      -0.34818900      -0.03739000
O       14.89647000      18.84000000      10.68620000      -0.52765300       0.45240500       0.86893700
O       16.23564000       2.12316000      18.09140000      -0.33375300      -0.41430600       0.30546500
O       12.55911000       1.24780000      13.61244000      -0.29673600       0.75506600      -0.37576700
O        9.72092000      18.83687000      13.78771000       0.55464500       0.16846400      -0.25392800
O       19.15462000       1.46405000      17.59238000       0.30960000       0.29993400       0.17160600
O       18.07333000       1.31058000      13.05044000      -0.11456000       0.38208600      -0.38401100
O       18.01828000      16.57420000      17.23160000       0.14426300       0.10182300      -0.12499800
O       17.53943000      18.18447000      11.93325000       0.86263400      -0.10874300      -0.25408600
O        9.34930000      21.67951000      16.04870000      -1.71975900      -1.79555900      -0.93678000
O       12.80624000       4.55156000      15.12293000      -0.88084900      -0.08274300      -0.02260400
O       17.81100000       1.51909000      20.00131000      -0.23082000       0.44454100       0.03705500
O       14.28753000      21.48280000      15.86254000       0.42649400       0.14520400      -0.18066300
O       11.71843000      18.89664000      11.43169000       0.16062100      -0.23854700       0.48133200
O       14.41190000      13.58150000      14.36474000       0.07936000      -0.83482300       0.00678400
O       19.01500000      18.18472000      14.80012000       0.12565000       0.31933300       0.21646200
O       10.34246000       2.56082000      16.36389000      -0.11475300      -0.00353600      -0.05902200
O       15.28558000       7.22079000      14.22132000      -0.25099500      -0.33778300      -0.31418900
O       17.55218000       4.86962000      18.97274000       0.01375200       0.64782200       0.68233200
O       16.16238000       1.12019000      15.15792000      -0.36172200       0.26789500       0.40647700
O       13.92939000      21.62496000       9.91172000       0.30863400       0.51890100      -0.54318200
O       15.24956000      16.45165000      12.85032000       0.09065500       0.13126200      -0.44495000
O       19.50007000      20.86817000      12.66736000       0.38217800       0.04762000      -0.36640500
O       10.49085000       2.81949000      13.42058000      -0.23530900       1.01380300       0.47052700
O       17.31984000       3.84194000      16.70544000       0.45932100       0.44780500      -0.75885200
O       14.87107000       0.13277000      12.94651000      -0.21729200      -0.86339700       0.38832700
O       14.62751000      22.42224000      18.85192000       0.51900900       0.05535600       0.58349600
O       12.51517000      16.73316000      13.99326000      -0.23805600      -0.10405600       0.01850200
O       20.56097000       0.17810000      15.25192000       0.21726700       0.14937500       0.38030300
O        9.86291000      22.16454000      13.00777000      -0.12977100       1.27738800      -1.19317100
O       14.89933000       6.85591000      16.80913000       0.15024200      -0.29027200      -0.04244900
O       15.36719000       1.98451000      11.34486000      -0.21093900       0.51657800      -0.83420900
O       13.66356000       2.11072000      16.84009000       0.80023800       0.38907500      -0.63353300
O       13.81060000      19.59139000      13.14074000      -0.10246100       0.25205700      -0.56106000
O       19.55304000      20.16692000      17.27889000       0.17225200       0.14409700       0.12479700
Zr      15.76974000      12.48801000      15.34717000       0.11831200       0.76071500       0.93326900
O       15.83275000      10.39648000      15.53956000      -0.03959900       0.30468600      -0.10854100
O       15.72252000      13.52390000      17.08170000       0.21100400      -0.50181100      -0.62484500
