74
Lattice="30.0 0.0 0.0 0.0 22.52911 0.0 0.0 0.0 30.0" Properties=species:S:1:pos:R:3:forces:R:3 energy=-673.46263652 pbc="T T T"
Zr      15.60459000       2.76747000      16.18986000      -0.39655500      -0.84467200      -0.40731000
Zr      13.82656000       0.70970000      11.04765000       0.51064500      -0.26112000       0.82930700
Zr      13.36440000       0.25415000      17.38849000      -1.23757800      -0.01006000      -0.05701800
Zr      11.70023000      18.43975000      13.37670000      -0.05569400       1.28508000      -0.34302700
Zr      19.40770000       0.01830000      13.67378000      -0.29982500      -0.07342200      -0.59718000
Zr      18.55208000      18.46745000      16.68879000      -0.18625100       0.05255200       0.06063400
Zr      11.72295000       2.84143000      15.00541000       0.64898200      -1.53358400       0.51797700
Zr       9.74135000      20.78306000      14.28414000       0.64827800      -1.26057500       1.34776000
Zr      16.67616000       5.72275000      17.37928000       0.00481000      -0.09129200      -0.81029900
Zr      16.11480000       1.78827000      13.14503000      -0.11310600      -0.01767700       0.63138400
Zr      16.55794000       0.39380000      19.01616000      -0.06062100      -0.44550300      -0.79170800
Zr      15.65761000      18.34992000      12.43439000      -1.58322900       0.46027800      -0.56089400
Zr      10.27010000       0.56921000      16.87163000       1.65310800       1.59392800       1.66001500
Zr      10.96192000       1.29096000      12.38400000       1.32395800      -1.55817900      -0.61610200
Zr      15.87756000       8.30933000      15.68993000      -0.14928100      -0.04539900       0.11207400
Zr      16.36677000      21.08255000      15.66461000      -0.40008900       0.23995700      -0.04131500
Zr      13.30143000      20.08934000      10.99846000       0.48449500      -1.67865200       0.57331300
Zr      16.81443000      15.10535000      16.43712000      -0.53174500       0.65970600       0.40041800
Zr      14.51563000       5.44339000      15.03977000       0.68902800       0.34717700      -0.29739900
Zr      18.04172000       2.99039000      18.47985000       0.13685100      -1.11076900       0.45387700
Zr      13.22757000      21.65830000      13.98679000       0.04960200       0.81582700       0.41880700
Zr      14.17273000      15.57286000      14.17114000      -0.32490700       0.14085000       0.32700000
Zr      19.38218000      22.17805000      16.79882000      -0.46738100      -0.66126300      -0.47662800
Zr      18.45223000      19.27903000      13.24014000       0.29474300       0.18028000       0.36293400
O       11.79181000       0.44876000      15.68714000       0.86874700      -0.67606300       0.08754200
O       12.10619000       1.64148000      10.76212000      -0.65300600       0.05787000       0.35361500
O       15.27125000      16.10553000      15.68781000       0.37216500       0.02879900       0.41137000
O       18.22962000      21.66091000      15.01420000       0.15399300       0.03857600       0.19909800
O       17.30469000      13.83201000      15.04860000      -0.17872600      -0.75317300      -0.35268400
O       11.71368000      20.33028000      14.56911000      -0.29202400      -0.14331200      -0.59822800
O       15.38553000       3.62040000      14.25376000       0.14529900       0.05752200       0.02559000
O       17.27829000      21.95432000      17.38609000      -0.33267900       0.12593300       0.51880300
O       16.60892000      19.79200000      13.80610000      -0.37852400       0.35645400       0.28066400
O       11.56768000       0.17344000      18.36849000       0.22970300       0.02394500      -1.09936700
O       12.54764000      21.72255000      12.06787000      -0.36775500       0.30348900      -0.15010300
O       17.44175000       7.26977000      16.33721000       0.19677900      -0.24465700       0.32743700
O       16.84240000      19.42588000      16.56838000      -0.31301100      -0.30690400      -0.03558700
O       14.89270000      18.83877000      10.68672000      -0.48035300       0.44421600       0.89961100
O       16.23607000       2.12393000      18.09327000      -0.35479900      -0.36718900       0.24694800
O       12.56416000       1.24256000      13.61147000      -0.35229900       0.84178000      -0.41078200
O        9.71751000      18.84816000      13.78724000       0.59248700      -0.00468900      -0.29455600
O       19.15166000       1.46205000      17.59685000       0.35556100       0.27857700       0.13256800
O       18.06848000       1.30924000      13.04678000      -0.01161000       0.34583500      -0.36145800
O       18.01476000      16.57019000      17.23035000       0.19610000       0.18027700      -0.11424700
O       17.53828000      18.18454000      11.93377000       0.89797200      -0.08546200      -0.22150800
O        9.34203000      21.67681000      16.04145000      -1.66185800      -1.61909200      -0.76146900
O       12.80622000       4.55021000      15.11944000      -0.89966900      -0.05006600      -0.00696400
O       17.80665000       1.51726000      20.00432000      -0.19705600       0.49076400       0.03209000
O       14.28542000      21.48147000      15.86163000       0.45266600       0.14984600      -0.15159600
O       11.71911000      18.89055000      11.42533000       0.16424600      -0.22212800       0.57046700
O       14.41621000      13.58104000      14.36414000       0.02913500      -0.84119500      -0.01208000
O       19.01884000      18.19201000      14.80337000       0.12273400       0.30214900       0.16766100
O       10.35927000       2.53455000      16.36741000      -0.32599500       0.34000300      -0.01691900
O       15.28847000       7.22330000      14.22045000      -0.27318400      -0.37646800      -0.30641700
O       17.55344000       4.86944000      18.97195000       0.01455500       0.64291000       0.67315800
O       16.16059000       1.11923000      15.15362000      -0.35039400       0.25424900       0.49390600
O       13.93096000      21.62273000       9.91184000       0.31033500       0.56077300      -0.52285100
O       15.24199000      16.45196000      12.85197000       0.17231000       0.20224700      -0.51110800
O       19.50164000      20.86869000      12.66626000       0.36715500       0.04994400      -0.35057700
O       10.49748000       2.82161000      13.41753000      -0.27505100       1.04771300       0.51676200
O       17.31882000       3.84261000      16.70210000       0.49534700       0.44588300      -0.70969100
O       14.87124000       0.13351000      12.95126000      -0.23389700      -0.92135100       0.35082600
O       14.63352000      22.42510000      18.85309000       0.33418700       0.02922300       0.51644800
O       12.51467000      16.73357000      13.99480000      -0.25006600      -0.06779400       0.00911200
O       20.56066000       0.17179000      15.24987000       0.23606100       0.17382400       0.41303900
O        9.86829000      22.16395000      13.00915000      -0.15567800       1.33856000      -1.25269600
O       14.89710000       6.85154000      16.80890000       0.17398500      -0.26746800      -0.06936400
O       15.36955000       1.98491000      11.34869000      -0.29103500       0.46972800      -0.89055500
O       13.66758000       2.11699000      16.83081000       0.73852200       0.22775100      -0.55474400
O       13.81212000      19.58912000      13.13803000      -0.14072000       0.27774700      -0.54281500
O       19.55227000      20.16326000      17.27681000       0.18492700       0.20477700       0.13406000
Zr      15.76843000      12.48822000      15.34907000       0.16591500       0.76192200       0.92514700
O       15.82886000      10.40016000      15.53822000      -0.02713200       0.21969100      -0.09920800
O       15.72641000      13.52263000      17.08244000       0.17629400      -0.51014400      -0.58958200
