74
Lattice="30.0 0.0 0.0 0.0 22.52911 0.0 0.0 0.0 30.0" Properties=species:S:1:pos:R:3:forces:R:3 energy=-673.4188511 pbc="T T T"
Zr      15.60767000       2.76334000      16.18819000      -0.35435000      -0.76093700      -0.55862100
Zr      13.82420000       0.70007000      11.06005000       0.67332100      -0.02625400       0.64330000
Zr      13.35842000       0.24992000      17.38981000      -0.65231900       0.58171400      -0.24825900
Zr      11.70173000      18.44612000      13.37201000       0.00389200       1.21616300      -0.39391200
Zr      19.40320000       0.02080000      13.66996000      -0.42415200       0.00066000      -0.81047800
Zr      18.54729000      18.46898000      16.69243000      -0.18838400      -0.17533400       0.20285500
Zr      11.72501000       2.85111000      15.00078000       1.28279400      -1.88000300       0.06687400
Zr       9.74417000      20.78261000      14.29087000       0.64665200      -0.76691700       0.87767800
Zr      16.67805000       5.71924000      17.37765000       0.02671800      -0.19037500      -0.76917000
Zr      16.11089000       1.78547000      13.15619000      -0.15517200       0.23971200       0.38418900
Zr      16.55186000       0.39453000      19.00978000       0.46066700      -0.45984200      -0.48801800
Zr      15.65724000      18.35650000      12.43852000      -1.75354000       0.27942000      -0.68618500
Zr      10.27030000       0.56011000      16.86667000       1.76145800      -0.13597000       1.46123600
Zr      10.95874000       1.27864000      12.38969000       1.48962700      -1.44383500      -0.71617100
Zr      15.87634000       8.30800000      15.68697000      -0.18836600       0.07594000       0.16871700
Zr      16.36845000      21.08112000      15.65580000      -0.54522500       0.26260200       0.13817100
Zr      13.29676000      20.09341000      11.00871000       0.41812100      -1.81740400       0.34621400
Zr      16.80965000      15.11045000      16.43436000      -0.33542600       0.33957800       0.47937900
Zr      14.51554000       5.43993000      15.04304000       0.71895600       0.34092000      -0.44506500
Zr      18.04107000       2.98346000      18.47853000       0.00214200      -0.95529000       0.59879000
Zr      13.23457000      21.68546000      13.97826000      -0.12555200       0.71287600       0.66096700
Zr      14.18219000      15.56301000      14.17808000      -0.72827200       0.19354300       0.36502200
Zr      19.38636000      22.17514000      16.79861000      -0.60216600      -0.70142200      -0.38610800
Zr      18.45171000      19.28822000      13.24584000       0.36447300       0.12558700       0.21930500
O       11.81197000       0.46380000      15.66407000       0.61694800      -1.04474200       0.58309200
O       12.10443000       1.63484000      10.77616000      -0.62047900       0.05193400       0.23412900
O       15.27916000      16.09806000      15.69098000       0.12484800       0.25619200       0.33436700
O       18.21210000      21.67815000      15.00119000       0.30926300       0.01368200       0.29807900
O       17.28692000      13.84322000      15.03887000      -0.03480900      -0.75578800      -0.42401300
O       11.71080000      20.35760000      14.57188000      -0.04114600      -0.39910100      -0.66404200
O       15.37917000       3.61584000      14.23398000       0.13465500       0.15621400       0.27237200
O       17.29320000      21.96834000      17.39424000      -0.35958400      -0.15925600       0.15221200
O       16.61098000      19.79979000      13.81620000      -0.41945600       0.31987500       0.20066200
O       11.59925000       0.20832000      18.38219000      -0.05423900      -0.08901700      -1.28137900
O       12.53794000      21.73341000      12.05645000      -0.32815700       0.16244100      -0.03803500
O       17.43921000       7.26152000      16.32961000       0.16401100      -0.16437000       0.32797300
O       16.84024000      19.41766000      16.56059000      -0.39809500      -0.13069200      -0.03031400
O       14.87469000      18.83639000      10.69443000      -0.25396500       0.37846600       0.91598200
O       16.23557000       2.12522000      18.10200000      -0.41271800      -0.11502500      -0.03886200
O       12.58240000       1.22678000      13.60482000      -0.48765400       1.14468300      -0.48511800
O        9.70737000      18.89312000      13.78330000       0.67397400      -0.79064600      -0.46056900
O       19.14200000       1.45543000      17.61568000       0.52822900       0.17148100      -0.03503500
O       18.04923000       1.30561000      13.02977000       0.38751400       0.18404400      -0.25740400
O       18.00189000      16.55535000      17.22465000       0.39466400       0.47186500      -0.06102300
O       17.53913000      18.18448000      11.93475000       0.91317700       0.03209500      -0.04990100
O        9.30269000      21.65727000      16.00843000      -1.28451400      -0.67282000       0.13328500
O       12.80064000       4.54462000      15.10523000      -0.86392200       0.11830200       0.05187600
O       17.78791000       1.51304000      20.01679000      -0.05855900       0.65695700       0.00839900
O       14.27968000      21.47697000      15.85715000       0.52707400       0.16285600      -0.02393600
O       11.72293000      18.86443000      11.40329000       0.18559900      -0.13418800       0.85795900
O       14.43365000      13.57412000      14.36146000      -0.22990300      -0.71001900      -0.12510900
O       19.03525000      18.22356000      14.81735000       0.11023300       0.22648600      -0.03925100
O       10.42474000       2.43154000      16.38198000      -1.10131300       1.89072100       0.14937200
O       15.29852000       7.23107000      14.21512000      -0.33417900      -0.49012300      -0.22882600
O       17.55864000       4.87252000      18.97267000       0.00752800       0.54612100       0.54918000
O       16.15126000       1.11673000      15.13955000      -0.27034200       0.15158800       0.77954800
O       13.93927000      21.61722000       9.90937000       0.28606400       0.63646800      -0.35849200
O       15.21256000      16.45487000      12.85526000       0.43725500       0.42665400      -0.70294200
O       19.51019000      20.87116000      12.65975000       0.28213300       0.06664100      -0.25569600
O       10.52274000       2.83671000      13.40845000      -0.35805300       1.03201700       0.65868800
O       17.31785000       3.84803000      16.68448000       0.60482600       0.40073400      -0.45070500
O       14.87048000       0.13064000      12.97254000      -0.23493700      -1.06029800       0.17147000
O       14.65886000      22.43677000      18.86057000      -0.52727600      -0.09953600       0.21098400
O       12.51106000      16.73504000      14.00107000      -0.24478200       0.04182900      -0.01735000
O       20.56088000       0.14718000      15.24410000       0.25789800       0.25368200       0.46641300
O        9.88914000      22.16979000      13.00701000      -0.30631400       1.29735500      -1.24229100
O       14.88918000       6.83224000      16.80736000       0.25274300      -0.15968500      -0.18489500
O       15.37697000       1.98907000      11.35871000      -0.55890600       0.23810400      -0.95790100
O       13.68805000       2.14306000      16.78999000       0.40490100      -0.38856900      -0.21823100
O       13.81725000      19.58168000      13.12381000      -0.27662800       0.36574200      -0.43630200
O       19.55033000      20.14991000      17.26918000       0.22268400       0.43167700       0.17207400
Zr      15.76331000      12.48989000      15.35779000       0.37480800       0.66772000       0.83893600
O       15.81285000      10.41599000      15.53219000       0.02240800      -0.17852300      -0.05111900
O       15.74316000      13.51433000      17.08217000       0.03776300      -0.47130000      -0.36226400
