74
Lattice="30.0 0.0 0.0 0.0 22.52911 0.0 0.0 0.0 30.0" Properties=species:S:1:pos:R:3:forces:R:3 energy=-673.08830323 pbc="T T T"
Zr      15.61134000       2.75479000      16.18387000      -0.07630800      -0.38866200      -0.59823500
Zr      13.82272000       0.68552000      11.08078000       0.63717200       0.39000100       0.20842300
Zr      13.34768000       0.24551000      17.39088000       0.45590400       1.13726900      -0.67174800
Zr      11.70406000      18.45957000      13.36367000       0.12160000       0.96383800      -0.34081400
Zr      19.39504000       0.02462000      13.66158000      -0.36269500       0.04591100      -0.86836800
Zr      18.53943000      18.47072000      16.69867000      -0.19329100      -0.26904400       0.33901000
Zr      11.73238000       2.85983000      14.99371000       1.78624500      -1.98743400      -0.59003700
Zr       9.75054000      20.77994000      14.30339000       0.70905100       0.39618600      -0.30169100
Zr      16.68107000       5.71321000      17.37280000       0.15720600      -0.42636700      -0.56000500
Zr      16.10438000       1.78207000      13.17413000      -0.31342400       0.49242700      -0.21426500
Zr      16.54435000       0.39422000      18.99876000       1.13096000      -0.35714600       0.05592500
Zr      15.65122000      18.36732000      12.44261000      -1.51304900       0.09834200      -0.66734300
Zr      10.27601000       0.54487000      16.86363000       1.36939900      -2.66104000       1.07026400
Zr      10.95863000       1.25572000      12.39606000       1.46424300      -0.44378400      -0.70964900
Zr      15.87387000       8.30622000      15.68300000      -0.19618300       0.08457000       0.13222800
Zr      16.36921000      21.07977000      15.64294000      -0.74909400       0.23625600       0.36776200
Zr      13.29091000      20.09394000      11.02523000       0.19716700      -1.56849000      -0.08293600
Zr      16.80149000      15.11901000      16.43166000       0.12272800      -0.34577700       0.44900100
Zr      14.51758000       5.43570000      15.04653000       0.46129400       0.21923100      -0.62976100
Zr      18.04000000       2.97007000      18.47850000      -0.21006900      -0.49326800       0.78171500
Zr      13.24469000      21.72891000      13.96752000      -0.44015500       0.53847900       1.00696600
Zr      14.19414000      15.54869000      14.18972000      -1.05608400       0.30218000       0.19640700
Zr      19.39076000      22.16852000      16.79715000      -0.68796900      -0.66135400      -0.22714800
Zr      18.45210000      19.30260000      13.25512000       0.40401300       0.15833200       0.01317400
O       11.85314000       0.46682000      15.64043000       0.28231600      -1.47562800       1.02287300
O       12.09121000       1.62552000      10.80098000      -0.31260400      -0.02058000      -0.11029700
O       15.29238000      16.09197000      15.70127000      -0.35373100       0.54596100       0.08354500
O       18.19143000      21.70455000      14.98692000       0.48233800      -0.01400700       0.35750600
O       17.25964000      13.84723000      15.01671000       0.13189500      -0.46575200      -0.29854000
O       11.70635000      20.39129000      14.56413000       0.26724600      -0.68777400      -0.63859500
O       15.37197000       3.61183000      14.20928000       0.14370300       0.20533600       0.48890400
O       17.30941000      21.98594000      17.40826000      -0.34154500      -0.54686000      -0.36685500
O       16.60664000      19.81709000      13.83472000      -0.37117400       0.17927200      -0.01555300
O       11.64509000       0.25929000      18.38030000      -0.61000800      -0.28664800      -1.08267400
O       12.51751000      21.75223000      12.03887000      -0.21854600      -0.11823100       0.17609100
O       17.43809000       7.24655000      16.32381000       0.05786400       0.07876200       0.24220400
O       16.82973000      19.40322000      16.54826000      -0.40418900       0.05963900       0.00325900
O       14.84353000      18.83925000      10.72200000       0.12940600       0.20106300       0.58540900
O       16.22739000       2.12592000      18.11368000      -0.38971000       0.25518700      -0.44024200
O       12.60147000       1.22393000      13.58625000      -0.41885300       1.33951800      -0.34767300
O        9.70400000      18.94493000      13.76859000       0.61653400      -1.78108600      -0.63113600
O       19.13719000       1.44815000      17.64326000       0.67638500       0.02380900      -0.22519600
O       18.02767000       1.30309000      12.99963000       0.70985000       0.02060300      -0.09430500
O       17.98985000      16.54183000      17.21503000       0.57682000       0.70968000       0.00953000
O       17.55620000      18.18538000      11.93598000       0.59160700       0.22260300       0.25088400
O        9.22100000      21.61821000      15.96341000      -0.65392800       0.61881500       1.36868300
O       12.77734000       4.53899000      15.08472000      -0.49024300       0.46642200       0.12486700
O       17.75866000       1.51874000      20.03567000       0.07023600       0.75881400      -0.09918500
O       14.28053000      21.47307000      15.85021000       0.54968600       0.15462800       0.11888900
O       11.73216000      18.82272000      11.38565000       0.21852800       0.04626200       1.01689300
O       14.45500000      13.55199000      14.35469000      -0.68907900      -0.16586700      -0.32526600
O       19.06212000      18.27530000      14.83742000       0.08096500       0.08725500      -0.25451200
O       10.50310000       2.31377000      16.40690000      -1.72350100       3.93001400       0.22697900
O       15.30774000       7.23396000      14.20339000      -0.34024300      -0.52773300      -0.00060000
O       17.56661000       4.88639000      18.98292000      -0.02542600       0.22674300       0.19301400
O       16.13260000       1.11516000      15.13246000      -0.07558500      -0.08366000       0.87239700
O       13.95680000      21.62001000       9.90005000       0.17009500       0.49565700       0.06742700
O       15.17588000      16.46703000      12.84776000       0.52040100       0.44623800      -0.61452400
O       19.52789000      20.87620000      12.64564000       0.10144000       0.10090000      -0.06908900
O       10.55478000       2.87726000      13.40658000      -0.31597200       0.55583800       0.66932100
O       17.32736000       3.86316000      16.65052000       0.63505700       0.23069600      -0.00000700
O       14.86561000       0.10741000      13.00730000       0.01677300      -0.92412600      -0.14985100
O       14.68542000      22.45227000      18.87501000      -1.61501000      -0.29544000      -0.14390800
O       12.50155000      16.73805000      14.01029000      -0.06581100       0.05954900      -0.01568100
O       20.56560000       0.11454000      15.24344000       0.13581500       0.33274600       0.31927100
O        9.91435000      22.20007000      12.98286000      -0.75550500       0.36541100      -0.55764700
O       14.88180000       6.80041000      16.80137000       0.30030800       0.03051700      -0.32825700
O       15.37785000       1.99887000      11.35750000      -0.70967200      -0.15371900      -0.56445500
O       13.72509000       2.17436000      16.72505000      -0.25338000      -1.02710600       0.26506400
O       13.81978000      19.57715000      13.09484000      -0.40498800       0.44782600      -0.17870400
O       19.55138000      20.13784000      17.26080000       0.21598900       0.62564600       0.22390400
Zr      15.75682000      12.49438000      15.37359000       0.65730800       0.22036200       0.52037100
O       15.78910000      10.43559000      15.52230000       0.10040500      -0.74387300       0.03537000
O       15.76896000      13.49381000      17.07630000      -0.11924200      -0.18297800       0.15392500
