74
Lattice="30.0 0.0 0.0 0.0 22.52911 0.0 0.0 0.0 30.0" Properties=species:S:1:pos:R:3:forces:R:3 energy=-673.00032094 pbc="T T T"
Zr      15.61410000       2.74662000      16.17864000       0.23161700       0.08478100      -0.46801600
Zr      13.82333000       0.67462000      11.09846000       0.42022500       0.69343300      -0.22629000
Zr      13.34000000       0.24505000      17.38987000       1.39278000       1.30921000      -1.09627800
Zr      11.70630000      18.47341000      13.35585000       0.23199900       0.60455700      -0.13750500
Zr      19.38733000       0.02788000      13.65224000      -0.08551700       0.01337500      -0.69375100
Zr      18.53241000      18.47144000      16.70472000      -0.18283800      -0.05731300       0.29802800
Zr      11.74343000       2.86132000      14.98638000       1.75050100      -1.80907900      -0.74371200
Zr       9.75779000      20.77862000      14.31307000       0.66032700       0.97366000      -0.98902100
Zr      16.68398000       5.70707000      17.36718000       0.30520200      -0.61597500      -0.34436400
Zr      16.09818000       1.78062000      13.18835000      -0.36712500       0.53463900      -0.69677300
Zr      16.54122000       0.39293000      18.98974000       1.13291200      -0.19023600       0.36577400
Zr      15.64191000      18.37654000      12.44408000      -0.99263600       0.02909700      -0.41858100
Zr      10.28473000       0.52543000      16.86423000       1.05561900      -2.94857700       0.51436800
Zr      10.96275000       1.23553000      12.39924000       1.35512900       0.91586900      -0.68642300
Zr      15.87129000       8.30497000      15.68012000      -0.17835000      -0.07358900       0.02375700
Zr      16.36771000      21.07935000      15.63339000      -0.86624000       0.19376900       0.46638800
Zr      13.28670000      20.08985000      11.03862000      -0.04332200      -1.11265200      -0.43036800
Zr      16.79506000      15.12519000      16.43073000       0.48870000      -0.79656300       0.33487900
Zr      14.52061000       5.43288000      15.04762000       0.08447700       0.09768100      -0.72895900
Zr      18.03857000       2.95759000      18.48068000      -0.29816100      -0.00186100       0.82803000
Zr      13.25178000      21.76617000      13.96155000      -0.73160000       0.33956800       1.30492700
Zr      14.20099000      15.53781000      14.19983000      -1.14736000       0.51885600      -0.19802300
Zr      19.39243000      22.16117000      16.79524000      -0.62063000      -0.56123900      -0.17219200
Zr      18.45356000      19.31488000      13.26282000       0.38124500       0.30395100      -0.11818900
O       11.89177000       0.44570000      15.63715000      -0.08103000      -1.56686000       1.07208100
O       12.07501000       1.61759000      10.81980000       0.04388800      -0.09110900      -0.47476200
O       15.29803000      16.09551000      15.71139000      -0.60458200       0.62916600      -0.07500000
O       18.18211000      21.72601000      14.98097000       0.51412800      -0.05359200       0.34360600
O       17.23917000      13.84270000      14.99363000       0.18707600      -0.09082200      -0.02648100
O       11.70660000      20.40807000      14.54733000       0.31466800      -0.77683800      -0.53095700
O       15.36844000       3.61175000      14.19668000       0.19163300       0.11011500       0.49873500
O       17.31705000      21.99193000      17.41448000      -0.35826600      -0.69487300      -0.54538100
O       16.59699000      19.83436000      13.84986000      -0.25530200       0.02986900      -0.23034500
O       11.67310000       0.29662000      18.36106000      -1.17879600      -0.45261000      -0.57330800
O       12.49704000      21.76604000      12.02714000      -0.12368000      -0.31523600       0.37846800
O       17.43822000       7.23535000      16.32308000      -0.02900000       0.31699100       0.13809700
O       16.81461000      19.39203000      16.53820000      -0.26275900       0.08559400       0.07013400
O       14.81966000      18.84504000      10.75431000       0.40161700       0.03095800       0.01474400
O       16.21436000       2.13010000      18.11664000      -0.25642600       0.32707300      -0.56039200
O       12.61037000       1.24311000      13.56535000      -0.15668400       1.17531400      -0.02206700
O        9.71136000      18.95995000      13.74651000       0.47897200      -1.82012300      -0.56514000
O       19.14407000       1.44277000      17.66249000       0.64300400      -0.02115200      -0.26450800
O       18.02097000       1.30165000      12.97315000       0.58168000       0.03746600       0.02049500
O       17.98910000      16.54191000      17.20717000       0.55044300       0.62893900       0.01709500
O       17.58011000      18.18954000      11.94076000       0.16609700       0.31556600       0.42544400
O        9.14263000      21.59449000      15.94703000      -0.09728600       1.06568900       1.64543600
O       12.74995000       4.54171000      15.06984000      -0.01397100       0.75662900       0.16822800
O       17.73553000       1.53560000      20.04955000       0.04946300       0.64041600      -0.27832300
O       14.29017000      21.47239000      15.84625000       0.48212800       0.12785000       0.14414500
O       11.74327000      18.78907000      11.38745000       0.22078100       0.21531200       0.84571400
O       14.46179000      13.53056000      14.34409000      -0.92397000       0.29763800      -0.36855900
O       19.08552000      18.31933000      14.85012000       0.03928500      -0.05656100      -0.24163600
O       10.54008000       2.27792000      16.43107000      -1.79567700       3.93615500       0.26730800
O       15.30978000       7.22778000      14.19353000      -0.28718200      -0.45392400       0.20307000
O       17.57276000       4.90175000      18.99483000      -0.06109700      -0.10270500      -0.12480000
O       16.11588000       1.11272000      15.14054000       0.11893300      -0.28347500       0.58558400
O       13.97409000      21.63049000       9.89311000       0.05010100       0.25751600       0.44027500
O       15.15403000      16.48409000      12.83168000       0.35944600       0.18227500      -0.24410800
O       19.54424000      20.88194000      12.63273000      -0.06404500       0.11209200       0.07183500
O       10.57586000       2.91996000      13.41583000      -0.26459500      -0.06907700       0.46015100
O       17.34549000       3.87947000      16.62214000       0.53521400       0.02011300       0.30814500
O       14.86182000       0.07325000      13.03367000       0.39827200      -0.54527800      -0.43258200
O       14.68254000      22.46046000      18.88502000      -1.69392500      -0.33601000      -0.23802800
O       12.49258000      16.74139000      14.01763000       0.17974700      -0.03635400       0.01352900
O       20.57176000       0.09310000      15.24817000      -0.03892800       0.37435600       0.07790300
O        9.92290000      22.23146000      12.95341000      -1.27607100      -0.82746800       0.25736300
O       14.88059000       6.77458000      16.79126000       0.27943600       0.17919200      -0.36597600
O       15.36724000       2.00483000      11.34707000      -0.61361500      -0.40644600       0.02041700
O       13.75201000       2.18404000      16.67552000      -0.75580000      -1.26665700       0.55285600
O       13.81541000      19.58069000      13.06794000      -0.42004100       0.47998200       0.10416300
O       19.55574000      20.13784000      17.25754000       0.13796200       0.58128400       0.26055600
Zr      15.75332000      12.49874000      15.38809000       0.71453400      -0.33439200       0.07693800
O       15.77117000      10.44025000      15.51467000       0.16272800      -0.94815600       0.09876200
O       15.78843000      13.47381000      17.07353000      -0.15923400       0.19892200       0.58227400
