74
Lattice="30.0 0.0 0.0 0.0 22.52911 0.0 0.0 0.0 30.0" Properties=species:S:1:pos:R:3:forces:R:3 energy=-673.06376502 pbc="T T T"
Zr      15.61532000       2.74336000      16.17619000       0.33172900       0.28610400      -0.38457400
Zr      13.82391000       0.67076000      11.10537000       0.31544100       0.77918000      -0.39824300
Zr      13.33784000       0.24581000      17.38873000       1.71073600       1.32137700      -1.24228600
Zr      11.70735000      18.47940000      13.35262000       0.28016800       0.41925100      -0.00179700
Zr      19.38416000       0.02918000      13.64799000       0.06099000      -0.00729900      -0.58579100
Zr      18.52949000      18.47165000      16.70735000      -0.17094000       0.08962400       0.24064300
Zr      11.74912000       2.86054000      14.98293000       1.64708200      -1.68179900      -0.65803500
Zr       9.76116000      20.77875000      14.31627000       0.57060500       1.01459100      -1.09782700
Zr      16.68534000       5.70421000      17.36467000       0.36414700      -0.66898300      -0.26691100
Zr      16.09546000       1.78045000      13.19355000      -0.34345100       0.51270300      -0.84386300
Zr      16.54084000       0.39226000      18.98640000       0.95747400      -0.11895800       0.42134500
Zr      15.63741000      18.38022000      12.44432000      -0.74646700       0.01332200      -0.26231000
Zr      10.28901000       0.51552000      16.86495000       0.98596500      -2.48646700       0.21017900
Zr      10.96540000       1.22800000      12.40000000       1.28629600       1.43878400      -0.68187400
Zr      15.87013000       8.30445000      15.67901000      -0.16944700      -0.16715000      -0.02542700
Zr      16.36649000      21.07933000      15.62993000      -0.88517900       0.17462300       0.47914100
Zr      13.28503000      20.08734000      11.04366000      -0.14016300      -0.91133100      -0.54984000
Zr      16.79282000      15.12711000      16.43063000       0.58695400      -0.88637500       0.27846700
Zr      14.52193000       5.43185000      15.04753000      -0.07694500       0.05888300      -0.75232600
Zr      18.03779000       2.95256000      18.48216000      -0.29777100       0.19835500       0.80814000
Zr      13.25409000      21.78123000      13.96010000      -0.84902500       0.23571200       1.42590400
Zr      14.20287000      15.53384000      14.20376000      -1.17543400       0.63778600      -0.38992700
Zr      19.39262000      22.15783000      16.79436000      -0.56202600      -0.50608200      -0.17930600
Zr      18.45442000      19.31995000      13.26580000       0.36447500       0.38460600      -0.15216200
O       11.90707000       0.43076000      15.64037000      -0.26077000      -1.52594800       1.01345700
O       12.06848000       1.61412000      10.82557000       0.16716700      -0.11101500      -0.60495300
O       15.29789000      16.09953000      15.71520000      -0.61879400       0.60236700      -0.09324900
O       18.18057000      21.73434000      14.98008000       0.49150800      -0.07932500       0.32669500
O       17.23181000      13.84021000      14.98413000       0.18562500       0.05134000       0.10088900
O       11.70801000      20.41150000      14.53833000       0.28021800      -0.76574700      -0.47409100
O       15.36781000       3.61228000      14.19380000       0.21817400       0.04152900       0.46727400
O       17.31860000      21.99148000      17.41475000      -0.38577400      -0.69418200      -0.52815400
O       16.59199000      19.84146000      13.85507000      -0.19913400      -0.02725700      -0.31000000
O       11.67973000       0.30966000      18.35056000      -1.38439000      -0.51398000      -0.32761500
O       12.48832000      21.77034000      12.02392000      -0.09096600      -0.35845900       0.46108200
O       17.43822000       7.23204000      16.32346000      -0.05411500       0.40182800       0.10000700
O       16.80737000      19.38795000      16.53444000      -0.17768000       0.06669900       0.10437900
O       14.81167000      18.84761000      10.76770000       0.48006100      -0.02808100      -0.26299300
O       16.20798000       2.13312000      18.11551000      -0.17932100       0.27609300      -0.53889900
O       12.61299000       1.25585000      13.55667000      -0.02164800       1.03438700       0.13725700
O        9.71641000      18.95812000      13.73528000       0.41418400      -1.59301500      -0.47349300
O       19.14956000       1.44057000      17.66902000       0.58636100      -0.01554000      -0.24795800
O       18.02092000       1.30120000      12.96264000       0.44559900       0.07995500       0.05873400
O       17.99118000      16.54470000      17.20413000       0.49446300       0.52534300       0.00599400
O       17.59066000      18.19246000      11.94432000      -0.00907700       0.32271600       0.45652000
O        9.11065000      21.58930000      15.94737000       0.17370800       1.08735600       1.53285500
O       12.73862000       4.54574000      15.06462000       0.17278900       0.83583900       0.17902700
O       17.72661000       1.54512000      20.05405000       0.01281400       0.54333100      -0.36068700
O       14.29609000      21.47268000      15.84527000       0.43137900       0.11739600       0.13346300
O       11.74861000      18.77649000      11.39192000       0.21399800       0.28071800       0.69262600
O       14.46076000      13.52295000      14.33835000      -0.93528900       0.41648500      -0.32438900
O       19.09501000      18.33668000      14.85410000       0.01804700      -0.11639200      -0.18689200
O       10.54720000       2.28062000      16.44173000      -1.75559000       3.39514300       0.28311400
O       15.30932000       7.22334000      14.19031000      -0.25704900      -0.40736400       0.26514400
O       17.57497000       4.90768000      18.99929000      -0.07546300      -0.22956500      -0.23303700
O       16.10958000       1.11072000      15.14650000       0.19447000      -0.34965800       0.40250500
O       13.98125000      21.63594000       9.89191000       0.00626000       0.15732600       0.56424500
O       15.14703000      16.49187000      12.82393000       0.27425000       0.04309300      -0.07028100
O       19.55059000      20.88469000      12.62780000      -0.12436700       0.10902800       0.11429300
O       10.58307000       2.93714000      13.42165000      -0.25891900      -0.32174500       0.32871800
O       17.35503000       3.88620000      16.61194000       0.46741600      -0.07337700       0.39938600
O       14.86166000       0.05706000      13.04254000       0.55549000      -0.35917900      -0.53786000
O       14.67418000      22.46230000      18.88803000      -1.47369000      -0.30889000      -0.22709400
O       12.48956000      16.74265000      14.02057000       0.28263000      -0.08661500       0.02719300
O       20.57419000       0.08615000      15.25059000      -0.10777600       0.38637500      -0.02342200
O        9.92136000      22.24144000      12.94213000      -1.45396300      -1.25527100       0.54678900
O       14.88131000       6.76497000      16.78572000       0.25893700       0.22844900      -0.35198500
O       15.36034000       2.00568000      11.34252000      -0.53469600      -0.46762100       0.25643800
O       13.75990000       2.18270000      16.65798000      -0.89909000      -1.29701800       0.62643900
O       13.81191000      19.58409000      13.05747000      -0.39760000       0.48438100       0.22207500
O       19.55812000      20.14035000      17.25732000       0.09292200       0.51386600       0.27460200
Zr      15.75245000      12.50031000      15.39397000       0.66503100      -0.55033100      -0.12916400
O       15.76470000      10.43823000      15.51201000       0.18602400      -0.93217000       0.11973200
O       15.79550000      13.46639000      17.07454000      -0.15207800       0.35268900       0.70704300
