74
Lattice="30.0 0.0 0.0 0.0 22.52911 0.0 0.0 0.0 30.0" Properties=species:S:1:pos:R:3:forces:R:3 energy=-673.45658108 pbc="T T T"
Zr      15.62282000       2.73139000      16.16387000       0.43939800       0.90335200       0.05409200
Zr      13.82756000       0.65781000      11.13324000      -0.07784000       0.77867000      -0.95995600
Zr      13.33828000       0.25589000      17.37673000       2.06990500       1.06076000      -1.24248900
Zr      11.71377000      18.50700000      13.33930000       0.50056500      -0.61289200       0.93830500
Zr      19.37124000       0.03489000      13.62674000       0.68495400      -0.02060700      -0.01352400
Zr      18.51569000      18.47411000      16.71984000      -0.06032700       0.89107900      -0.15435200
Zr      11.78213000       2.84945000      14.96546000       0.81234900      -0.65815200       0.61787400
Zr       9.77823000      20.78401000      14.32494000      -0.24903500       0.37167600      -0.78991400
Zr      16.69363000       5.68781000      17.35240000       0.58948900      -0.67068400      -0.09102500
Zr      16.08190000       1.78202000      13.21177000       0.03913300       0.23227100      -1.13034300
Zr      16.54241000       0.38899000      18.97363000      -0.37127800       0.10033400       0.26116300
Zr      15.61490000      18.39665000      12.44511000       0.26348900      -0.06716900       0.54204500
Zr      10.31265000       0.46277000      16.86737000       0.28261300       0.79872600      -0.97440700
Zr      10.98312000       1.20386000      12.39993000       0.45426200       2.20227800      -0.55224200
Zr      15.86413000       8.30059000      15.67367000      -0.12272800      -0.65271900      -0.18487000
Zr      16.35655000      21.08002000      15.61694000      -0.69730700       0.05090400       0.38640600
Zr      13.27639000      20.07249000      11.06275000      -0.37747800      -0.17654200      -0.89399500
Zr      16.78608000      15.13114000      16.43127000       0.56275700      -0.58393300       0.05037200
Zr      14.52654000       5.42741000      15.04316000      -0.63607700      -0.01144700      -0.74509600
Zr      18.03298000       2.93230000      18.49259000      -0.05146300       0.95729600       0.45630300
Zr      13.25941000      21.84886000      13.96171000      -1.14459300      -0.44182800       1.81573300
Zr      14.20490000      15.52025000      14.21814000      -1.37340900       1.25850000      -1.09785600
Zr      19.39100000      22.14068000      16.78930000      -0.21472500      -0.15524700      -0.33373300
Zr      18.46005000      19.34512000      13.27830000       0.26381100       0.75555300      -0.07850900
O       11.96139000       0.32213000      15.67998000      -0.97145100      -0.99092000       0.17204000
O       12.04661000       1.59505000      10.83070000       0.27441300      -0.11566500      -0.73490200
O       15.28139000      16.13248000      15.73034000      -0.13624800       0.11410800       0.09330400
O       18.18643000      21.76792000      14.98490000       0.18796000      -0.25938400       0.18503500
O       17.20368000      13.83425000      14.94891000       0.04185500       0.37951700       0.58549300
O       11.72075000      20.40600000      14.48624000       0.05352600      -0.40377200      -0.18582600
O       15.37232000       3.61301000      14.19302000       0.30866300      -0.31999900       0.21814800
O       17.31265000      21.97064000      17.40340000      -0.56490400      -0.35658200      -0.00228100
O       16.56577000      19.87069000      13.86691000       0.05881400      -0.20392600      -0.53341200
O       11.66503000       0.35060000      18.30216000      -1.29652700      -0.75993000       0.64299900
O       12.44761000      21.77912000      12.02588000       0.00423700      -0.17588800       0.77209700
O       17.43613000       7.23126000      16.32720000      -0.08299300       0.57358500       0.02681800
O       16.77301000      19.37064000      16.52188000       0.22271500      -0.06116100       0.22275300
O       14.79171000      18.85685000      10.81003000       0.56738700      -0.14035400      -1.35967900
O       16.17718000       2.15118000      18.09690000       0.19305300      -0.25302900      -0.16043600
O       12.62870000       1.33694000      13.52720000       0.49915600       0.12596900       0.69864100
O        9.74874000      18.91515000      13.67568000       0.06488200       0.08104300       0.14810300
O       19.18839000       1.43100000      17.69223000       0.12749000       0.08485300      -0.02968300
O       18.02789000       1.30357000      12.91862000      -0.32346000       0.33335600       0.19808500
O       18.01220000      16.56755000      17.19009000       0.09219400      -0.19755400      -0.07616900
O       17.63192000      18.21422000      11.97340000      -0.66348400       0.13465500       0.30558700
O        8.98369000      21.59584000      15.98595000       1.52302100       0.60906400       0.31627800
O       12.69819000       4.58878000      15.04669000       0.64827800       0.61747000       0.16067200
O       17.68552000       1.59931000      20.06102000      -0.18407800      -0.05845600      -0.57229300
O       14.33273000      21.47737000      15.84413000       0.03186500       0.12981600       0.02761200
O       11.77831000      18.73070000      11.42460000       0.12765200       0.51175600      -0.44603900
O       14.43096000      13.50244000      14.30682000      -0.41148400       0.33366900       0.28915000
O       19.13696000      18.40865000      14.86906000      -0.11277200      -0.34671600       0.16442600
O       10.53128000       2.36632000      16.49591000      -0.90924800      -0.05462000      -0.23815800
O       15.30082000       7.19331000      14.18481000      -0.11119900      -0.15701200       0.28341600
O       17.58216000       4.92363000      19.00956000      -0.12976200      -0.63026400      -0.49004700
O       16.08943000       1.09013000      15.17813000       0.41678700      -0.39070800      -0.42668100
O       14.01218000      21.66173000       9.90617000      -0.12974200      -0.22526000       0.79734600
O       15.12144000      16.52349000      12.79261000       0.02972400      -0.41890900       0.50164600
O       19.57349000      20.89979000      12.61001000      -0.31141200       0.04189800       0.16664700
O       10.60729000       2.99643000      13.45190000      -0.30372300      -1.22565800      -0.37908900
O       17.40843000       3.91079000      16.58022000       0.02890100      -0.48530400       0.55217900
O       14.88129000      22.50956000      13.06329000       0.81549500       0.37330900      -0.79981600
O       14.60599000      22.46312000      18.89627000       0.33207500      -0.06348900       0.02300800
O       12.48760000      16.74409000      14.03490000       0.61723800      -0.25503400       0.06492200
O       20.57991000       0.06684000      15.25753000      -0.30218500       0.41160800      -0.38170000
O        9.86959000      22.24121000      12.91436000      -1.19667100      -1.47155400       1.01257500
O       14.89123000       6.73005000      16.75197000       0.11734500       0.33660000      -0.09732300
O       15.31721000       1.99520000      11.33645000      -0.03838600      -0.36177600       0.93212400
O       13.76654000       2.13937000      16.59911000      -0.88034100      -0.95988600       0.59748500
O       13.78627000      19.61346000      13.02100000      -0.07889300       0.41536000       0.62318900
O       19.56982000      20.16345000      17.26493000      -0.11470900       0.04543000       0.33481900
Zr      15.75136000      12.50348000      15.41835000       0.05035700      -1.02425100      -0.85971900
O       15.74201000      10.40504000      15.50418000       0.26516200      -0.29407500       0.16678500
O       15.82328000      13.44767000      17.10137000      -0.04361500       0.69630000       0.59775700
