74
Lattice="30.0 0.0 0.0 0.0 22.52911 0.0 0.0 0.0 30.0" Properties=species:S:1:pos:R:3:forces:R:3 energy=-673.46946692 pbc="T T T"
Zr      15.62388000       2.73048000      16.16249000       0.42520600       0.92183900       0.09623700
Zr      13.82797000       0.65683000      11.13585000      -0.10712400       0.74139900      -0.98861500
Zr      13.33944000       0.25761000      17.37472000       1.98169800       0.99632800      -1.15888400
Zr      11.71470000      18.50986000      13.33818000       0.52210000      -0.73093300       1.04990400
Zr      19.37011000       0.03549000      13.62432000       0.72751700      -0.00359800       0.04824000
Zr      18.51413000      18.47472000      16.72118000      -0.04376200       0.96333000      -0.19298500
Zr      11.78631000       2.84770000      14.96364000       0.69704100      -0.50067600       0.80026600
Zr       9.78011000      20.78491000      14.32539000      -0.35273400       0.27139600      -0.71731600
Zr      16.69481000       5.68565000      17.35099000       0.60719100      -0.64402800      -0.09275400
Zr      16.08036000       1.78237000      13.21319000       0.09756500       0.18626300      -1.13121900
Zr      16.54260000       0.38866000      18.97241000      -0.51098300       0.10725800       0.22246700
Zr      15.61244000      18.39842000      12.44537000       0.33875500      -0.07843200       0.60320800
Zr      10.31554000       0.45692000      16.86728000       0.12662500       1.09092200      -1.05003100
Zr      10.98545000       1.20238000      12.39960000       0.31989300       2.11530400      -0.52845800
Zr      15.86340000       8.29990000      15.67300000      -0.11659700      -0.70089200      -0.19173500
Zr      16.35505000      21.08014000      15.61574000      -0.64887400       0.03140600       0.36651600
Zr      13.27526000      20.07068000      11.06441000      -0.36762800      -0.12380800      -0.91142700
Zr      16.78567000      15.13119000      16.43140000       0.52447700      -0.50115000       0.03759200
Zr      14.52678000       5.42693000      15.04229000      -0.66754600      -0.01025800      -0.73375400
Zr      18.03238000       2.93048000      18.49403000      -0.00641500       1.01746900       0.39669300
Zr      13.25941000      21.85613000      13.96279000      -1.12830400      -0.53220900       1.82544800
Zr      14.20443000      15.51933000      14.21923000      -1.39289300       1.32216100      -1.13543200
Zr      19.39066000      22.13867000      16.78860000      -0.18199100      -0.10641200      -0.35120100
Zr      18.46082000      19.34821000      13.27960000       0.25107900       0.78203600      -0.04569100
O       11.96495000       0.30674000      15.68576000      -1.00907800      -0.91575300       0.03596400
O       12.04513000       1.59260000      10.82898000       0.23750800      -0.10986800      -0.69167200
O       15.27861000      16.13695000      15.73205000      -0.05998100       0.04044100       0.12009500
O       18.18795000      21.77099000      14.98613000       0.14362900      -0.28323900       0.16172900
O       17.20089000      13.83458000      14.94644000       0.01884800       0.37638000       0.61626400
O       11.72248000      20.40376000      14.47973000       0.04131900      -0.33895600      -0.15141900
O       15.37368000       3.61244000      14.19382000       0.30916300      -0.35013300       0.19081400
O       17.31046000      21.96691000      17.40158000      -0.57462100      -0.30117300       0.07149200
O       16.56286000      19.87340000      13.86675000       0.08412700      -0.21305700      -0.53852900
O       11.65900000       0.35300000      18.29803000      -1.15192200      -0.78163000       0.72095800
O       12.44311000      21.77926000      12.02816000       0.00893500      -0.11921000       0.79239600
O       17.43565000       7.23283000      16.32771000      -0.07808800       0.56563700       0.03071900
O       16.76960000      19.36867000      16.52109000       0.25555300      -0.06582500       0.22627900
O       14.79124000      18.85748000      10.81140000       0.55364900      -0.13588100      -1.41570100
O       16.17408000       2.15291000      18.09401000       0.22464100      -0.31187700      -0.11451800
O       12.63153000       1.34703000      13.52568000       0.52690100       0.01875700       0.72239800
O        9.75279000      18.90920000      13.66904000       0.02293900       0.24347700       0.21137300
O       19.19347000       1.43011000      17.69446000       0.06737900       0.09247900      -0.00372000
O       18.02833000       1.30462000      12.91429000      -0.38708800       0.35093100       0.21315000
O       18.01515000      16.57013000      17.18840000       0.04983900      -0.27544900      -0.08309500
O       17.63496000      18.21724000      11.97772000      -0.71447100       0.09820300       0.26763700
O        8.97322000      21.59892000      15.99227000       1.64200300       0.53402500       0.18145300
O       12.69546000       4.59575000      15.04525000       0.65256400       0.53249800       0.15176300
O       17.68063000       1.60561000      20.06016000      -0.19620400      -0.12552000      -0.56337400
O       14.33724000      21.47823000      15.84419000      -0.02682100       0.13811700       0.01787800
O       11.78204000      18.72706000      11.42794000       0.11183000       0.52432900      -0.58078700
O       14.42585000      13.50146000      14.30359000      -0.31924900       0.27787400       0.37627800
O       19.14134000      18.41565000      14.87089000      -0.12958600      -0.36041000       0.19085500
O       10.52583000       2.37844000      16.50184000      -0.75562000      -0.34898500      -0.35943800
O       15.29943000       7.18933000      14.18515000      -0.09633200      -0.12905300       0.25655800
O       17.58260000       4.92377000      19.00935000      -0.13475600      -0.65011700      -0.49285200
O       16.08833000       1.08662000      15.18097000       0.42280400      -0.35947200      -0.48465500
O       14.01527000      21.66419000       9.91004000      -0.13795600      -0.25959400       0.78545200
O       15.11887000      16.52600000      12.79030000       0.02537100      -0.43420500       0.52907200
O       19.57519000      20.90164000      12.60857000      -0.32031500       0.03141300       0.15859100
O       10.60907000       2.99993000      13.45469000      -0.30405600      -1.29354600      -0.44543000
O       17.41477000       3.91237000      16.57836000      -0.02636400      -0.52324100       0.54455900
O       14.88588000      22.50175000      13.06329000       0.77182900       0.42405100      -0.79252500
O       14.59785000      22.46279000      18.89698000       0.52381700      -0.03750700       0.05474300
O       12.48901000      16.74359000      14.03664000       0.63090500      -0.25879900       0.06467100
O       20.57976000       0.06595000      15.25741000      -0.30861600       0.41150100      -0.40620200
O        9.85968000      22.23628000      12.91427000      -1.05397000      -1.31614300       0.97576900
O       14.89280000       6.72719000      16.74770000       0.09913900       0.33547000      -0.05377300
O       15.31191000       1.99274000      11.33815000       0.02118300      -0.31095700       0.95279300
O       13.76438000       2.13129000      16.59461000      -0.81604100      -0.87035700       0.55885200
O       13.78288000      19.61802000      13.01860000      -0.02441900       0.39295700       0.64107300
O       19.57092000      20.16655000      17.26671000      -0.13165100      -0.00608800       0.34069600
Zr      15.75138000      12.50332000      15.42065000      -0.03120600      -1.01216100      -0.89149200
O       15.74026000      10.39982000      15.50380000       0.26962400      -0.19053500       0.16714000
O       15.82608000      13.44757000      17.10644000      -0.03249300       0.68656600       0.51752900
