74
Lattice="30.0 0.0 0.0 0.0 22.52911 0.0 0.0 0.0 30.0" Properties=species:S:1:pos:R:3:forces:R:3 energy=-673.47384958 pbc="T T T"
Zr      15.62497000       2.72968000      16.16112000       0.41023900       0.92755600       0.13440600
Zr      13.82837000       0.65593000      11.13834000      -0.13397600       0.69958600      -1.01042800
Zr      13.34080000       0.25943000      17.37259000       1.87367100       0.92224400      -1.05954500
Zr      11.71568000      18.51263000      13.33717000       0.54261200      -0.84550300       1.15407900
Zr      19.36905000       0.03609000      13.62192000       0.76257400       0.01869100       0.10716300
Zr      18.51258000      18.47544000      16.72250000      -0.02797200       1.02739400      -0.22811700
Zr      11.79054000       2.84591000      14.96191000       0.57998400      -0.33799700       0.97871500
Zr       9.78194000      20.78584000      14.32576000      -0.45306500       0.17198000      -0.64108700
Zr      16.69605000       5.68343000      17.34959000       0.62354800      -0.61470200      -0.09895800
Zr      16.07885000       1.78273000      13.21449000       0.15630000       0.13831400      -1.12759400
Zr      16.54274000       0.38835000      18.97123000      -0.64161800       0.10799200       0.18293000
Zr      15.61003000      18.40017000      12.44568000       0.40272900      -0.08907700       0.65155300
Zr      10.31842000       0.45123000      16.86708000      -0.04258600       1.35412500      -1.11443600
Zr      10.98781000       1.20112000      12.39922000       0.18653200       2.00945400      -0.50518800
Zr      15.86266000       8.29914000      15.67233000      -0.11106600      -0.74613300      -0.19680900
Zr      16.35349000      21.08027000      15.61459000      -0.59630700       0.01022200       0.34528500
Zr      13.27411000      20.06887000      11.06596000      -0.34833000      -0.07711100      -0.92579600
Zr      16.78532000      15.13118000      16.43153000       0.48307100      -0.41414000       0.02884700
Zr      14.52695000       5.42644000      15.04134000      -0.69080900      -0.00811100      -0.72017100
Zr      18.03178000       2.92878000      18.49552000       0.03990100       1.07038400       0.33510700
Zr      13.25930000      21.86331000      13.96406000      -1.09971500      -0.62328800       1.82510500
Zr      14.20383000      15.51855000      14.22019000      -1.40819000       1.38260200      -1.16127900
Zr      19.39030000      22.13665000      16.78786000      -0.15251100      -0.05587900      -0.36693700
Zr      18.46162000      19.35137000      13.28089000       0.23699400       0.80229400      -0.01012000
O       11.96787000       0.29089000      15.69152000      -1.03488600      -0.84100600      -0.10317200
O       12.04380000       1.59009000      10.82685000       0.19330900      -0.10302100      -0.63834500
O       15.27582000      16.14142000      15.73383000       0.01402700      -0.03375900       0.14309800
O       18.18955000      21.77387000      14.98745000       0.09965100      -0.30682600       0.13687500
O       17.19813000      13.83514000      14.94437000      -0.00419700       0.36554700       0.64050900
O       11.72422000      20.40134000      14.47316000       0.03209900      -0.27128000      -0.11573900
O       15.37522000       3.61166000      14.19473000       0.30693900      -0.37585000       0.16530300
O       17.30793000      21.96302000      17.39983000      -0.57995300      -0.24693900       0.14288900
O       16.56002000      19.87596000      13.86626000       0.10805200      -0.21944500      -0.53931900
O       11.65231000       0.35493000      18.29436000      -0.98381000      -0.80096400       0.79453300
O       12.43865000      21.77932000      12.03091000       0.01256500      -0.05774200       0.80785900
O       17.43513000       7.23472000      16.32824000      -0.07167200       0.55249100       0.03701200
O       16.76635000      19.36666000      16.52045000       0.28358800      -0.06759500       0.22679400
O       14.79110000      18.85802000      10.81191000       0.53697400      -0.12833000      -1.45112200
O       16.17113000       2.15444000      18.09106000       0.25202800      -0.36606100      -0.07236300
O       12.63466000       1.35707000      13.52461000       0.54703700      -0.08539000       0.73684200
O        9.75683000      18.90344000      13.66258000      -0.01691100       0.38994300       0.26939600
O       19.19855000       1.42929000      17.69668000       0.00820700       0.09779700       0.02049800
O       18.02854000       1.30586000      12.91011000      -0.44184400       0.36406000       0.22785400
O       18.01810000      16.57253000      17.18667000       0.01104800      -0.34709000      -0.08946100
O       17.63755000      18.22030000      11.98217000      -0.76000900       0.06058700       0.22790100
O        8.96380000      21.60230000      15.99867000       1.74809800       0.45794700       0.05333300
O       12.69313000       4.60300000      15.04391000       0.64705400       0.43828900       0.14265500
O       17.67566000       1.61180000      20.05896000      -0.20563200      -0.18969800      -0.54579000
O       14.34171000      21.47917000      15.84425000      -0.08628800       0.14759200       0.00964100
O       11.78580000      18.72375000      11.43091000       0.09421700       0.53336200      -0.70770300
O       14.42058000      13.50066000      14.30061000      -0.22701100       0.21691500       0.46090000
O       19.14561000      18.42239000      14.87282000      -0.14663600      -0.37136700       0.21213700
O       10.51996000       2.39027000      16.50751000      -0.59581700      -0.61094200      -0.48654000
O       15.29800000       7.18530000      14.18563000      -0.08252700      -0.10141300       0.22429800
O       17.58296000       4.92351000      19.00885000      -0.13944500      -0.66423600      -0.49070400
O       16.08750000       1.08293000      15.18349000       0.42467800      -0.32080600      -0.53260400
O       14.01826000      21.66647000       9.91435000      -0.14522400      -0.29206500       0.76632400
O       15.11633000      16.52822000      12.78832000       0.02577100      -0.44079700       0.54885800
O       19.57669000      20.90350000      12.60724000      -0.32668800       0.02113300       0.14846400
O       10.61065000       3.00264000      13.45720000      -0.30172000      -1.35446300      -0.50558400
O       17.42106000       3.91363000      16.57685000      -0.08230700      -0.55820700       0.53239700
O       14.89090000      22.49424000      13.06281000       0.71131500       0.46837700      -0.77659800
O       14.59007000      22.46245000      18.89771000       0.70088600      -0.01397700       0.08436500
O       12.49079000      16.74294000      14.03841000       0.63880600      -0.25869600       0.06358300
O       20.57941000       0.06531000      15.25706000      -0.31186500       0.41047600      -0.42769800
O        9.84920000      22.23059000      12.91477000      -0.89851400      -1.13853800       0.92492500
O       14.89442000       6.72455000      16.74342000       0.08112400       0.33201400      -0.00749500
O       15.30666000       1.99011000      11.34042000       0.08149000      -0.25362400       0.96194000
O       13.76174000       2.12274000      16.59048000      -0.74344500      -0.77038100       0.51341800
O       13.77949000      19.62278000      13.01660000       0.03108300       0.36829600       0.65037200
O       19.57194000      20.16962000      17.26868000      -0.14694600      -0.05515700       0.34580400
Zr      15.75140000      12.50306000      15.42285000      -0.11082600      -0.98801200      -0.91106600
O       15.73869000      10.39451000      15.50352000       0.27364600      -0.08627400       0.16686000
O       15.82885000      13.44787000      17.11180000      -0.02199300       0.66740600       0.42836900
