74
Lattice="30.0 0.0 0.0 0.0 22.52911 0.0 0.0 0.0 30.0" Properties=species:S:1:pos:R:3:forces:R:3 energy=-673.40120812 pbc="T T T"
Zr      15.63093000       2.72720000      16.15472000       0.36695800       0.80732000       0.27446700
Zr      13.83005000       0.65254000      11.14893000      -0.24643000       0.45446300      -0.99535700
Zr      13.35011000       0.26954000      17.36080000       1.14228200       0.36425900      -0.39116400
Zr      11.72136000      18.52462000      13.33424000       0.61884200      -1.33790000       1.48443800
Zr      19.36513000       0.03912000      13.61047000       0.79706400       0.20576900       0.35349100
Zr      18.50496000      18.48062000      16.72853000       0.05137100       1.17506300      -0.32412900
Zr      11.81188000       2.83699000      14.95534000      -0.01032600       0.48040000       1.72197300
Zr       9.78999000      20.79041000      14.32677000      -0.86698000      -0.29542700      -0.22960800
Zr      16.70312000       5.67171000      17.34254000       0.66949700      -0.41552600      -0.18281300
Zr      16.07181000       1.78463000      13.21908000       0.44005800      -0.12350700      -1.05785700
Zr      16.54216000       0.38696000      18.96565000      -1.15454100       0.04231700       0.02168100
Zr      15.59897000      18.40859000      12.44830000       0.55460500      -0.13382700       0.66690500
Zr      10.33207000       0.42595000      16.86424000      -0.95653700       2.26292200      -1.28807500
Zr      10.99937000       1.19788000      12.39662000      -0.37599600       1.35585300      -0.40290900
Zr      15.85891000       8.29419000      15.66870000      -0.08300800      -0.89048200      -0.19281400
Zr      16.34505000      21.08085000      15.60946000      -0.30228500      -0.10462600       0.23776300
Zr      13.26798000      20.05995000      11.07209000      -0.10886400       0.07277800      -0.93849100
Zr      16.78425000      15.13071000      16.43220000       0.26224000       0.02887700       0.04895000
Zr      14.52667000       5.42406000      15.03561000      -0.68414600       0.01218000      -0.62461000
Zr      18.02901000       2.92223000      18.50315000       0.27302700       1.22321300       0.01738700
Zr      13.25711000      21.89724000      13.97310000      -0.79320100      -1.07656900       1.69701500
Zr      14.19864000      15.51702000      14.22305000      -1.38735000       1.59231000      -1.11486200
Zr      19.38835000      22.12681000      16.78368000      -0.06694900       0.20732100      -0.39516800
Zr      18.46582000      19.36809000      13.28724000       0.14056800       0.78750300       0.19844300
O       11.97289000       0.20678000      15.71720000      -0.98274900      -0.47542000      -0.72709700
O       12.03842000       1.57703000      10.81152000      -0.07363500      -0.05601300      -0.28007100
O       15.26306000      16.16213000      15.74395000       0.29065100      -0.36881600       0.17936200
O       18.19777000      21.78497000      14.99481000      -0.09901000      -0.41491400      -0.00388000
O       17.18437000      13.84085000      14.94006000      -0.09261200       0.21825500       0.65132100
O       11.73299000      20.38790000      14.44045000       0.03336400       0.06326000       0.05758800
O       15.38539000       3.60431000      14.20040000       0.25105400      -0.42169300       0.07089700
O       17.29047000      21.94243000      17.39324000      -0.51867700      -0.00372400       0.40315400
O       16.54736000      19.88650000      13.85915000       0.20800600      -0.21395200      -0.47226300
O       11.61315000       0.35701000      18.28426000       0.03470900      -0.85593100       1.06992600
O       12.41696000      21.77990000      12.05164000       0.02562100       0.28702800       0.80785100
O       17.43203000       7.24867000      16.33125000      -0.02031700       0.41695100       0.09361300
O       16.75326000      19.35631000      16.51926000       0.34977100      -0.01651200       0.18318500
O       14.79499000      18.85966000      10.80149000       0.42512800      -0.06275800      -1.29833000
O       16.15921000       2.15814000      18.07641000       0.32571200      -0.54059600       0.05654300
O       12.65493000       1.40423000      13.52592000       0.53736100      -0.55228600       0.68376800
O        9.77600000      18.88013000      13.63395000      -0.18277700       0.87826700       0.47872200
O       19.22285000       1.42613000      17.70793000      -0.25157700       0.07081400       0.10125400
O       18.02519000       1.31526000      12.89189000      -0.54499200       0.34601200       0.30758500
O       18.03228000      16.58048000      17.17735000      -0.11871900      -0.56884800      -0.10573000
O       17.64301000      18.23535000      12.00551000      -0.89555600      -0.11450000       0.03551300
O        8.93430000      21.62203000      16.02908000       2.05538500       0.09401200      -0.43937300
O       12.68729000       4.64110000      15.03853000       0.49776000      -0.10252600       0.09026800
O       17.64947000       1.63968000      20.04864000      -0.19484200      -0.44849900      -0.34195800
O       14.36206000      21.48522000      15.84458000      -0.38075700       0.20389500      -0.01061400
O       11.80483000      18.71236000      11.43791000      -0.02394900       0.51242200      -1.11067200
O       14.39384000      13.49794000      14.29109000       0.19478200      -0.08976300       0.82252400
O       19.16498000      18.45199000      14.88427000      -0.22817800      -0.36921600       0.21103200
O       10.48785000       2.44019000      16.52940000       0.19495400      -1.48213400      -1.10378900
O       15.29039000       7.16499000      14.18954000      -0.01903000       0.02440800       0.00716600
O       17.58343000       4.91629000      19.00215000      -0.15963800      -0.64453100      -0.41068900
O       16.08714000       1.06258000      15.19076000       0.37673000      -0.04404800      -0.61234700
O       14.03151000      21.67467000       9.94192000      -0.16452300      -0.43065200       0.56881600
O       15.10425000      16.53527000      12.78362000       0.08808200      -0.35793100       0.54595000
O       19.58107000      20.91265000      12.60187000      -0.31909000      -0.02493800       0.07297100
O       10.61582000       3.00321000      13.46438000      -0.23656100      -1.55500000      -0.68248700
O       17.45043000       3.91445000      16.57395000      -0.35058400      -0.68304000       0.41936600
O       14.92082000      22.46207000      13.05390000       0.22490300       0.58685900      -0.58745400
O       14.56005000      22.46089000      18.90234000       1.31129600       0.08544600       0.16211400
O       12.50512000      16.73755000      14.04759000       0.57178800      -0.18627400       0.04220600
O       20.57497000       0.06582000      15.25130000      -0.28872700       0.39438800      -0.48401700
O        9.79187000      22.19497000      12.92464000      -0.09698100      -0.12302000       0.53205900
O       14.90286000       6.71449000      16.72301000      -0.00653400       0.27494700       0.22836800
O       15.28237000       1.97575000      11.35996000       0.34319500       0.09913000       0.83764400
O       13.74317000       2.07545000      16.57417000      -0.32384700      -0.11214700       0.19604400
O       13.76389000      19.64898000      13.01259000       0.31474700       0.18646300       0.58994700
O       19.57547000      20.18367000      17.28146000      -0.19470100      -0.23284200       0.35589700
Zr      15.75115000      12.50032000      15.43215000      -0.44612000      -0.73387600      -0.85556300
O       15.73347000      10.36898000      15.50362000       0.28073300       0.38504900       0.15645700
O       15.84226000      13.45493000      17.14064000      -0.00619900       0.46195400      -0.07949600
