74
Lattice="30.0 0.0 0.0 0.0 22.52911 0.0 0.0 0.0 30.0" Properties=species:S:1:pos:R:3:forces:R:3 energy=-673.33553174 pbc="T T T"
Zr      15.63487000       2.72678000      16.15131000       0.39068100       0.65172500       0.32018200
Zr      13.83074000       0.65117000      11.15385000      -0.30134000       0.31696200      -0.89702000
Zr      13.35709000       0.27598000      17.35332000       0.65001400      -0.13676900       0.10092300
Zr      11.72544000      18.53002000      13.33434000       0.64102500      -1.53356200       1.47214600
Zr      19.36384000       0.04112000      13.60419000       0.70670100       0.36865700       0.45416800
Zr      18.50058000      18.48510000      16.73166000       0.09529500       1.11185900      -0.31092900
Zr      11.82440000       2.83225000      14.95355000      -0.34630900       0.90073500       1.98578600
Zr       9.79366000      20.79278000      14.32699000      -1.01213500      -0.53461900       0.02346200
Zr      16.70808000       5.66433000      17.33822000       0.66628000      -0.26989500      -0.26667100
Zr      16.06821000       1.78562000      13.22041000       0.58966600      -0.28630700      -0.97657300
Zr      16.54046000       0.38621000      18.96245000      -1.34744800      -0.04879200      -0.02343400
Zr      15.59319000      18.41334000      12.45066000       0.53602700      -0.14674600       0.50194800
Zr      10.33899000       0.41391000      16.86100000      -1.41536300       2.54942100      -1.26160700
Zr      11.00573000       1.19780000      12.39459000      -0.58369500       0.97828500      -0.35290600
Zr      15.85661000       8.29021000      15.66634000      -0.06802300      -0.89415900      -0.17279000
Zr      16.33971000      21.08108000      15.60679000      -0.12308300      -0.17089900       0.18103100
Zr      13.26423000      20.05481000      11.07449000       0.13634100       0.11755000      -0.90538700
Zr      16.78400000      15.13039000      16.43265000       0.14401800       0.26323600       0.10783100
Zr      14.52565000       5.42269000      15.03147000      -0.58447100       0.02623000      -0.54977600
Zr      18.02769000       2.91992000      18.50768000       0.39633800       1.21288600      -0.16400200
Zr      13.25478000      21.91574000      13.98052000      -0.52768500      -1.33360300       1.53721300
Zr      14.19387000      15.51810000      14.22332000      -1.27301100       1.61212900      -0.95877400
Zr      19.38712000      22.12129000      16.78075000      -0.06759000       0.36462100      -0.36587400
Zr      18.46847000      19.37883000      13.29116000       0.04846200       0.67372100       0.31230800
O       11.96873000       0.15400000      15.72757000      -0.82606100      -0.25919400      -0.96850300
O       12.03502000       1.56896000      10.80023000      -0.21529600      -0.02232900      -0.05236500
O       15.25745000      16.17189000      15.75111000       0.35573100      -0.51882100       0.12823200
O       18.20204000      21.78858000      14.99921000      -0.18648300      -0.46828500      -0.09530300
O       17.17577000      13.84589000      14.94220000      -0.11014700       0.07879100       0.56708700
O       11.73833000      20.38019000      14.42163000       0.04369700       0.22278800       0.15318000
O       15.39318000       3.59705000      14.20429000       0.18515300      -0.37483000       0.04422300
O       17.27652000      21.93017000      17.39203000      -0.41080200       0.09601900       0.45354500
O       16.54137000      19.89111000      13.85157000       0.25074400      -0.18113200      -0.37671500
O       11.58955000       0.35216000      18.28575000       0.61394800      -0.84711500       1.11984500
O       12.40448000      21.78196000      12.06951000       0.03509800       0.48499300       0.73492500
O       17.43002000       7.25992000      16.33362000       0.02159400       0.28947100       0.13943000
O       16.74807000      19.35010000      16.51993000       0.32868400       0.05646000       0.12661700
O       14.80040000      18.86010000      10.78595000       0.34124300      -0.00965700      -0.97213800
O       16.15453000       2.15658000      18.06815000       0.31922400      -0.55767400       0.06205300
O       12.67062000       1.42822000      13.53165000       0.46394700      -0.75804600       0.58824100
O        9.78603000      18.87238000      13.62048000      -0.23788900       0.98584600       0.54010200
O       19.23546000       1.42482000      17.71514000      -0.36827200       0.00969700       0.10766900
O       18.01943000       1.32324000      12.88339000      -0.47043100       0.27071200       0.35909900
O       18.03982000      16.58125000      17.17118000      -0.13734700      -0.57191300      -0.10714400
O       17.63992000      18.24348000      12.01955000      -0.89337300      -0.18331100      -0.04666100
O        8.93152000      21.63454000      16.04412000       2.05312900      -0.10650900      -0.62315000
O       12.68760000       4.66311000      15.03608000       0.33501800      -0.42617200       0.06022500
O       17.63279000       1.65297000      20.03997000      -0.14383600      -0.53797200      -0.14603300
O       14.37149000      21.49015000      15.84472000      -0.53035800       0.23414100      -0.00384700
O       11.81586000      18.70940000      11.43442000      -0.12591300       0.44294300      -1.10169200
O       14.37924000      13.49601000      14.29107000       0.38369100      -0.23487600       0.96535300
O       19.17472000      18.46661000      14.89246000      -0.27075300      -0.32793700       0.13265000
O       10.46976000       2.45948000      16.53487000       0.60252400      -1.71693800      -1.39544400
O       15.28576000       7.15321000      14.19209000       0.01159300       0.08607400      -0.14401300
O       17.58257000       4.90744000      18.99523000      -0.16899300      -0.55979000      -0.31269400
O       16.08968000       1.05012000      15.19067000       0.31039000       0.15103500      -0.54331000
O       14.03807000      21.67650000       9.96225000      -0.16576400      -0.49104400       0.38842100
O       15.09778000      16.53673000      12.78480000       0.15833300      -0.23951500       0.47862900
O       19.58133000      20.91785000      12.59933000      -0.28623000      -0.04193800       0.01433300
O       10.61708000       2.99262000      13.46385000      -0.15950100      -1.58500200      -0.68508200
O       17.46531000       3.91016000      16.57538000      -0.48944900      -0.71225300       0.31808000
O       14.94036000      22.44740000      13.04431000      -0.13808600       0.59954500      -0.41818500
O       14.55136000      22.46051000      18.90612000       1.44531900       0.13544600       0.13299800
O       12.51763000      16.73300000      14.05327000       0.44087200      -0.08190200       0.02005700
O       20.57029000       0.06895000      15.24454000      -0.25029000       0.37758500      -0.47618500
O        9.75697000      22.17233000      12.93459000       0.29954200       0.44843500       0.24214300
O       14.90781000       6.71064000      16.71252000      -0.05351600       0.21594800       0.35642600
O       15.27041000       1.96775000      11.37747000       0.44313800       0.33191800       0.63467100
O       13.72961000       2.04644000      16.56637000      -0.07759800       0.39544400      -0.05421600
O       13.75676000      19.66577000      13.01453000       0.46012700       0.03934700       0.47313000
O       19.57618000      20.19036000      17.29145000      -0.20425500      -0.27435200       0.34351700
Zr      15.75049000      12.49775000      15.43649000      -0.58455900      -0.51949200      -0.73621700
O       15.73243000      10.35640000      15.50482000       0.27446200       0.58591900       0.14579800
O       15.85001000      13.46256000      17.15738000      -0.02601500       0.28443800      -0.36193600
