74
Lattice="30.0 0.0 0.0 0.0 22.52911 0.0 0.0 0.0 30.0" Properties=species:S:1:pos:R:3:forces:R:3 energy=-673.3050684 pbc="T T T"
Zr      15.64222000       2.72738000      16.14638000       0.50576600       0.34281200       0.34257100
Zr      13.83121000       0.64954000      11.16014000      -0.37044200       0.18518400      -0.62790900
Zr      13.36974000       0.28601000      17.34147000      -0.10332400      -1.14367300       0.94788000
Zr      11.73350000      18.53563000      13.33751000       0.62996700      -1.63704500       1.12232200
Zr      19.36313000       0.04526000      13.59484000       0.41675600       0.66459600       0.52950900
Zr      18.49357000      18.49472000      16.73619000       0.16953700       0.78302500      -0.19089200
Zr      11.84416000       2.82649000      14.95481000      -0.81355300       1.35924400       2.07776000
Zr       9.79757000      20.79548000      14.32752000      -1.03966900      -0.80131600       0.35374500
Zr      16.71763000       5.65166000      17.33049000       0.60651400      -0.01982900      -0.43662200
Zr      16.06359000       1.78658000      13.22061000       0.77993100      -0.53471700      -0.76746200
Zr      16.53478000       0.38482000      18.95714000      -1.46455000      -0.24761100       0.01308700
Zr      15.58478000      18.42085000      12.45548000       0.41467400      -0.14276000       0.05260500
Zr      10.34729000       0.39952000      16.85310000      -1.71119600       2.74965600      -0.92067500
Zr      11.01492000       1.19957000      12.39052000      -0.76093600       0.40265600      -0.26165800
Zr      15.85268000       8.28181000      15.66211000      -0.04831200      -0.73638300      -0.12890300
Zr      16.33071000      21.08108000      15.60275000       0.11754900      -0.24600000       0.11268400
Zr      13.25849000      20.04662000      11.07656000       0.65349300       0.17017200      -0.79343800
Zr      16.78384000      15.13051000      16.43367000       0.00080100       0.53630200       0.24877300
Zr      14.52282000       5.42049000      15.02354000      -0.30167700       0.04013200      -0.40308400
Zr      18.02641000       2.91862000      18.51471000       0.53469600       0.98712600      -0.40062300
Zr      13.24997000      21.94330000      13.99587000      -0.08423900      -1.69785900       1.19214400
Zr      14.18344000      15.52321000      14.22184000      -0.88522500       1.41097100      -0.54710000
Zr      19.38492000      22.11304000      16.77519000      -0.13997900       0.59129300      -0.24739800
Zr      18.47287000      19.39783000      13.29831000      -0.18110700       0.32136300       0.41519100
O       11.95255000       0.06459000      15.73286000      -0.46561700       0.13012200      -1.02960200
O       12.02664000       1.55552000      10.78149000      -0.31563400       0.04156600       0.22569600
O       15.25237000      16.18149000      15.76414000       0.28587900      -0.64985600      -0.05801600
O       18.20671000      21.78879000      15.00507000      -0.25810600      -0.53009800      -0.23629400
O       17.16036000      13.85471000      14.95211000      -0.05732400      -0.17309700       0.29647000
O       11.74763000      20.37039000      14.39268000       0.02611300       0.34358700       0.28130800
O       15.40798000       3.58089000      14.21124000       0.03576900      -0.17347400       0.03965900
O       17.24904000      21.91124000      17.39533000      -0.14148800       0.16082400       0.33465400
O       16.53458000      19.89669000      13.83493000       0.28706000      -0.07608800      -0.13730900
O       11.55915000       0.33411000      18.30131000       1.23713000      -0.76415400       0.85692100
O       12.38443000      21.79159000      12.10735000       0.07410300       0.71647200       0.47132200
O       17.42710000       7.28151000      16.33933000       0.09412000       0.04453600       0.20908100
O       16.74328000      19.34082000      16.52234000       0.20810300       0.21972700       0.00201000
O       14.81315000      18.86087000      10.74993000       0.16744700       0.08620100      -0.21519500
O       16.15053000       2.14748000      18.05515000       0.24941900      -0.45386000      -0.03025700
O       12.70172000       1.45830000      13.54784000       0.27581700      -0.92803800       0.40856700
O        9.79966000      18.87137000      13.60484000      -0.24311900       0.91890000       0.55851300
O       19.25162000       1.42252000      17.72822000      -0.47739400      -0.15133000       0.04773300
O       18.00480000       1.33930000      12.87383000      -0.15234200       0.07247300       0.42821600
O       18.05067000      16.57597000      17.15975000      -0.07697700      -0.36384600      -0.09578600
O       17.62432000      18.25460000      12.04202000      -0.73494000      -0.21241900      -0.09735300
O        8.95118000      21.65337000      16.06113000       1.75670900      -0.41623900      -0.78150900
O       12.69160000       4.69348000      15.03272000       0.00703100      -0.87016400       0.02253400
O       17.60384000       1.66834000      20.02455000       0.00759800      -0.55447700       0.22711400
O       14.38038000      21.50112000      15.84497000      -0.66846500       0.25347900       0.04179000
O       11.83217000      18.70954000      11.41610000      -0.34508700       0.24128000      -0.68230500
O       14.36011000      13.48982000      14.30282000       0.55294600      -0.33956400       1.05788100
O       19.18742000      18.48691000      14.90720000      -0.32075800      -0.21163900      -0.07660200
O       10.44805000       2.47047000      16.52662000       1.09436900      -1.78493500      -1.67561700
O       15.27835000       7.13497000      14.19417000       0.05370400       0.16447200      -0.37087400
O       17.57912000       4.88654000      18.98042000      -0.18139100      -0.30486700      -0.09447500
O       16.09737000       1.03191000      15.18441000       0.17375600       0.42790200      -0.29237500
O       14.04692000      21.67353000       9.99983000      -0.15298800      -0.53233500       0.03695500
O       15.08923000      16.53663000      12.79221000       0.28628700      -0.00685800       0.30778800
O       19.57847000      20.92590000      12.59517000      -0.19752500      -0.04473900      -0.08294700
O       10.61749000       2.95630000      13.45500000      -0.00199200      -1.43846900      -0.51642300
O       17.48363000       3.89459000      16.58123000      -0.65566700      -0.67575800       0.12465300
O       14.96995000      22.43042000      13.02398000      -0.68364600       0.57173700      -0.12246200
O       14.55420000      22.46161000      18.91368000       1.28246800       0.20169800      -0.03669200
O       12.54294000      16.72495000      14.06279000       0.06863000       0.18640500      -0.02619100
O       20.55972000       0.07858000      15.22781000      -0.15924400       0.33583700      -0.38566600
O        9.70383000      22.14161000      12.95314000       0.72573100       1.14126500      -0.19324900
O       14.91523000       6.70672000      16.69978000      -0.11450400       0.09453000       0.50533800
O       15.25607000       1.95912000      11.41310000       0.44529300       0.66329600       0.10788300
O       13.70688000       2.00489000      16.55214000       0.22321300       1.27296900      -0.49642600
O       13.75082000      19.69341000      13.02296000       0.60588600      -0.24979300       0.18792700
O       19.57491000      20.19812000      17.31194000      -0.19945800      -0.23786000       0.28689700
Zr      15.74815000      12.49254000      15.44216000      -0.70852300      -0.15129700      -0.47521500
O       15.73397000      10.34296000      15.50850000       0.25057500       0.70919300       0.12738400
O       15.86235000      13.47802000      17.18008000      -0.10510300      -0.03200000      -0.66853500
