74
Lattice="30.0 0.0 0.0 0.0 22.52911 0.0 0.0 0.0 30.0" Properties=species:S:1:pos:R:3:forces:R:3 energy=-673.31572733 pbc="T T T"
Zr      15.64385000       2.72764000      16.14550000       0.53379700       0.28055800       0.33886400
Zr      13.83120000       0.64928000      11.16118000      -0.37850400       0.17677200      -0.56439600
Zr      13.37231000       0.28775000      17.33932000      -0.23307500      -1.33942400       1.10377900
Zr      11.73532000      18.53624000      13.33855000       0.61992100      -1.62205400       1.01920600
Zr      19.36315000       0.04628000      13.59313000       0.34380100       0.72040200       0.53010900
Zr      18.49221000      18.49693000      16.73702000       0.18478500       0.69149700      -0.15750100
Zr      11.84791000       2.82573000      14.95573000      -0.88499600       1.40567900       2.04747400
Zr       9.79802000      20.79579000      14.32771000      -1.01300300      -0.82492200       0.38951800
Zr      16.71974000       5.64909000      17.32881000       0.58626300       0.02908600      -0.47204300
Zr      16.06290000       1.78662000      13.22039000       0.80696600      -0.57844600      -0.71433000
Zr      16.53317000       0.38448000      18.95607000      -1.45066600      -0.28808900       0.03714600
Zr      15.58323000      18.42231000      12.45650000       0.38745200      -0.13835500      -0.04722000
Zr      10.34842000       0.39749000      16.85118000      -1.68117900       2.75665400      -0.80529000
Zr      11.01654000       1.20010000      12.38961000      -0.78116300       0.28337500      -0.24048600
Zr      15.85188000       8.27987000      15.66121000      -0.04441500      -0.68151100      -0.11935700
Zr      16.32893000      21.08101000      15.60198000       0.15343900      -0.25341300       0.10291600
Zr      13.25750000      20.04503000      11.07671000       0.76467600       0.18106700      -0.76347800
Zr      16.78382000      15.13068000      16.43394000      -0.01876500       0.56812900       0.27822200
Zr      14.52213000       5.42006000      15.02181000      -0.23428000       0.04083900      -0.37160600
Zr      18.02631000       2.91870000      18.51602000       0.54957300       0.90767700      -0.43401800
Zr      13.24894000      21.94832000      13.99937000      -0.00565800      -1.75863700       1.11561800
Zr      14.18102000      15.52470000      14.22133000      -0.77911800       1.33426900      -0.45137900
Zr      19.38445000      22.11155000      16.77398000      -0.16241100       0.62916500      -0.21603300
Zr      18.47371000      19.40178000      13.29987000      -0.23799700       0.23253100       0.41958700
O       11.94827000       0.04667000      15.73203000      -0.39322000       0.21765000      -0.98896000
O       12.02441000       1.55287000      10.77802000      -0.30938700       0.05571000       0.25840100
O       15.25193000      16.18228000      15.76676000       0.24904200      -0.65620000      -0.10543400
O       18.20720000      21.78789000      15.00588000      -0.26063700      -0.53806300      -0.26019200
O       17.15712000      13.85629000      14.95479000      -0.03496200      -0.22014000       0.22841600
O       11.74956000      20.36902000      14.38733000       0.01563000       0.34162400       0.30056400
O       15.41110000       3.57722000      14.21270000       0.00190300      -0.11601000       0.04249100
O       17.24312000      21.90772000      17.39669000      -0.07710700       0.15848100       0.28220500
O       16.53372000      19.89761000      13.83121000       0.28860800      -0.04759700      -0.07998200
O       11.55505000       0.32904000      18.30618000       1.30139800      -0.73710800       0.74400400
O       12.38051000      21.79473000      12.11596000       0.08589700       0.74265000       0.39977700
O       17.42665000       7.28605000      16.34082000       0.10695300      -0.00618900       0.21939400
O       16.74277000      19.33927000      16.52289000       0.17413600       0.25450100      -0.02461500
O       14.81610000      18.86114000      10.74193000       0.12725300       0.10459500      -0.05466800
O       16.15023000       2.14476000      18.05254000       0.23032300      -0.41648700      -0.05716300
O       12.70857000       1.46271000      13.55192000       0.23318900      -0.93208500       0.37754700
O        9.80195000      18.87291000      13.60272000      -0.23277800       0.87436300       0.55201300
O       19.25404000       1.42187000      17.73097000      -0.48773500      -0.18977500       0.02687000
O       18.00140000       1.34276000      12.87266000      -0.06622600       0.02706200       0.43751400
O       18.05267000      16.57412000      17.15727000      -0.05406200      -0.29589500      -0.09070300
O       17.61975000      18.25645000      12.04637000      -0.68045900      -0.20505800      -0.09532800
O        8.95851000      21.65654000      16.06319000       1.65542200      -0.47513200      -0.79390200
O       12.69258000       4.69820000      15.03210000      -0.05999900      -0.93750100       0.01722000
O       17.59795000       1.67041000      20.02168000       0.04584500      -0.53765100       0.29918400
O       14.38100000      21.50378000      15.84507000      -0.67444600       0.25138400       0.05728500
O       11.83493000      18.71011000      11.41093000      -0.39427100       0.19118000      -0.55422400
O       14.35722000      13.48799000      14.30708000       0.56310800      -0.33621700       1.05423600
O       19.18940000      18.49055000      14.91013000      -0.32636200      -0.18468000      -0.12287300
O       10.44547000       2.46943000      16.52202000       1.16222000      -1.76018200      -1.69846600
O       15.27694000       7.13158000      14.19401000       0.06054900       0.17618500      -0.40607400
O       17.57810000       4.88165000      18.97716000      -0.18365600      -0.23845300      -0.04525000
O       16.09930000       1.02890000      15.18248000       0.14562300       0.46815500      -0.22876600
O       14.04841000      21.67198000      10.00762000      -0.14906700      -0.52833700      -0.03474300
O       15.08797000      16.53649000      12.79435000       0.30911300       0.03739600       0.26977000
O       19.57749000      20.92743000      12.59423000      -0.17599300      -0.04071400      -0.10086800
O       10.61750000       2.94628000      13.45218000       0.02800800      -1.37186800      -0.45728700
O       17.48619000       3.89020000      16.58273000      -0.67602100      -0.65487300       0.08568100
O       14.97490000      22.42807000      13.01953000      -0.77151100       0.56229000      -0.06762500
O       14.55724000      22.46218000      18.91523000       1.19366800       0.20956800      -0.08290000
O       12.54835000      16.72353000      14.06467000      -0.02595700       0.25095300      -0.03519300
O       20.55727000       0.08114000      15.22369000      -0.13711600       0.32635100      -0.35526800
O        9.69430000      22.13723000      12.95671000       0.77815600       1.23190800      -0.26049000
O       14.91654000       6.70616000      16.69808000      -0.12321000       0.06864100       0.52185000
O       15.25403000       1.95844000      11.42073000       0.41747400       0.71379800      -0.02143300
O       13.70259000       1.99845000      16.54859000       0.25955100       1.42607200      -0.57431000
O       13.75068000      19.69865000      13.02514000       0.61856600      -0.31025700       0.12353000
O       19.57428000      20.19921000      17.31661000      -0.19611500      -0.21673500       0.26927200
Zr      15.74746000      12.49142000      15.44313000      -0.71743900      -0.08250300      -0.41918900
O       15.73475000      10.34152000      15.50948000       0.24398200       0.69856400       0.12356500
O       15.86468000      13.48122000      17.18354000      -0.12637600      -0.09193700      -0.69983600
