74
Lattice="30.0 0.0 0.0 0.0 22.52911 0.0 0.0 0.0 30.0" Properties=species:S:1:pos:R:3:forces:R:3 energy=-673.33178665 pbc="T T T"
Zr      15.64554000       2.72792000      16.14465000       0.56107800       0.21860100       0.33196400
Zr      13.83114000       0.64904000      11.16216000      -0.38475700       0.17490500      -0.49906600
Zr      13.37487000       0.28936000      17.33727000      -0.35402700      -1.52336300       1.25077800
Zr      11.73722000      18.53668000      13.33969000       0.60669700      -1.59614700       0.90864500
Zr      19.36320000       0.04738000      13.59146000       0.26794900       0.77345900       0.52551100
Zr      18.49087000      18.49923000      16.73785000       0.20086000       0.59574100      -0.12269600
Zr      11.85158000       2.82512000      14.95687000      -0.94651800       1.43748500       2.00181000
Zr       9.79836000      20.79601000      14.32795000      -0.97590300      -0.83714700       0.41271300
Zr      16.72193000       5.64651000      17.32707000       0.56360600       0.07684200      -0.50807700
Zr      16.06228000       1.78660000      13.22009000       0.83034300      -0.61890400      -0.65735900
Zr      16.53141000       0.38411000      18.95500000      -1.42142800      -0.32607800       0.06635500
Zr      15.58172000      18.42377000      12.45753000       0.36056800      -0.13195800      -0.14577300
Zr      10.34938000       0.39575000      16.84916000      -1.62128400       2.75475100      -0.67566000
Zr      11.01808000       1.20067000      12.38867000      -0.79730800       0.15877100      -0.22021100
Zr      15.85106000       8.27785000      15.66030000      -0.04038500      -0.62057500      -0.11040800
Zr      16.32715000      21.08091000      15.60121000       0.18433500      -0.25734900       0.09474900
Zr      13.25659000      20.04344000      11.07678000       0.87486000       0.19147500      -0.73067600
Zr      16.78380000      15.13092000      16.43424000      -0.03545800       0.59198200       0.30623300
Zr      14.52141000       5.41963000      15.02003000      -0.16606000       0.03969400      -0.34070500
Zr      18.02627000       2.91887000      18.51728000       0.55967600       0.81672200      -0.46230000
Zr      13.24790000      21.95318000      14.00300000       0.06791600      -1.81666900       1.03800900
Zr      14.17851000      15.52635000      14.22078000      -0.66403800       1.24583900      -0.35271400
Zr      19.38395000      22.11012000      16.77275000      -0.18671200       0.66521500      -0.18291800
Zr      18.47454000      19.40578000      13.30148000      -0.29816400       0.13965300       0.41760200
O       11.94374000       0.02880000      15.73060000      -0.32381900       0.30834000      -0.93060000
O       12.02198000       1.55023000      10.77469000      -0.29318000       0.06983400       0.28162100
O       15.25164000      16.18268000      15.76932000       0.20613400      -0.65610500      -0.15431300
O       18.20754000      21.78667000      15.00654000      -0.25920700      -0.54437100      -0.28224700
O       17.15384000      13.85774000      14.95762000      -0.00870400      -0.26453200       0.15765900
O       11.75151000      20.36784000      14.38212000       0.00258800       0.32945400       0.31685100
O       15.41423000       3.57345000      14.21420000      -0.03229200      -0.05469000       0.04447400
O       17.23713000      21.90427000      17.39822000      -0.01213700       0.15153300       0.22273300
O       16.53304000      19.89851000      13.82742000       0.28796500      -0.01743300      -0.01947700
O       11.55172000       0.32351000      18.31152000       1.34570300      -0.70726800       0.61336100
O       12.37663000      21.79833000      12.12485000       0.09905100       0.75992900       0.32160400
O       17.42626000       7.29061000      16.34245000       0.11856200      -0.05635600       0.22825700
O       16.74236000      19.33787000      16.52343000       0.13816200       0.28838800      -0.05067800
O       14.81914000      18.86146000      10.73384000       0.08463500       0.12275000       0.10312000
O       16.15006000       2.14178000      18.04988000       0.21077100      -0.37563900      -0.08497300
O       12.71559000       1.46658000      13.55624000       0.18815400      -0.92599700       0.34822000
O        9.80410000      18.87498000      13.60092000      -0.22034000       0.82208400       0.54229300
O       19.25618000       1.42110000      17.73375000      -0.49418800      -0.22850800       0.00369700
O       17.99795000       1.34626000      12.87174000       0.02403300      -0.01846400       0.44404400
O       18.05464000      16.57208000      17.15472000      -0.02863100      -0.22274900      -0.08490000
O       17.61474000      18.25818000      12.05068000      -0.61809200      -0.19525600      -0.09074500
O        8.96687000      21.65944000      16.06477000       1.54125200      -0.53346700      -0.80082500
O       12.69353000       4.70237000      15.03149000      -0.12439400      -0.99572800       0.01265100
O       17.59207000       1.67216000      20.01898000       0.08528000      -0.51411200       0.36743400
O       14.38122000      21.50660000      15.84520000      -0.67289100       0.24681000       0.07492700
O       11.83747000      18.71081000      11.40539000      -0.44391300       0.13969000      -0.41938200
O       14.35465000      13.48594000      14.31200000       0.56514300      -0.32492100       1.04330200
O       19.19120000      18.49408000      14.91300000      -0.33066600      -0.15785000      -0.16846600
O       10.44358000       2.46732000      16.51637000       1.21770100      -1.72462800      -1.71022900
O       15.27556000       7.12827000      14.19361000       0.06697300       0.18665000      -0.43648800
O       17.57697000       4.87659000      18.97385000      -0.18613800      -0.16840400       0.00506500
O       16.10132000       1.02617000      15.18041000       0.11844400       0.50159500      -0.16247500
O       14.04982000      21.67010000      10.01543000      -0.14551100      -0.51936300      -0.10602100
O       15.08690000      16.53637000      12.79666000       0.32963200       0.07768500       0.23232200
O       19.57639000      20.92895000      12.59322000      -0.15396300      -0.03523500      -0.11780800
O       10.61752000       2.93539000      13.44906000       0.05446900      -1.29024700      -0.38981600
O       17.48835000       3.88539000      16.58429000      -0.69065800      -0.62923000       0.04737700
O       14.97940000      22.42604000      13.01502000      -0.84845300       0.55157200      -0.01638400
O       14.56101000      22.46287000      18.91673000       1.08743600       0.21469300      -0.13071100
O       12.55377000      16.72225000      14.06654000      -0.12530800       0.31778700      -0.04363200
O       20.55471000       0.08392000      15.21934000      -0.11488600       0.31642300      -0.32033700
O        9.68519000      22.13356000      12.96014000       0.82080000       1.30605000      -0.31692400
O       14.91778000       6.70564000      16.69668000      -0.13039600       0.04359000       0.53316600
O       15.25223000       1.95819000      11.42839000       0.38055700       0.75857400      -0.15584000
O       13.69844000       1.99283000      16.54468000       0.28593200       1.56003000      -0.64488100
O       13.75091000      19.70373000      13.02741000       0.62478500      -0.37086700       0.05821600
O       19.57354000      20.20018000      17.32146000      -0.19259100      -0.19290900       0.25082400
Zr      15.74670000      12.49028000      15.44405000      -0.72156500      -0.01703600      -0.36245800
O       15.73568000      10.34050000      15.51054000       0.23701800       0.67600400       0.11984600
O       15.86694000      13.48438000      17.18660000      -0.14880800      -0.15002900      -0.72148500
