74
Lattice="30.0 0.0 0.0 0.0 22.52911 0.0 0.0 0.0 30.0" Properties=species:S:1:pos:R:3:forces:R:3 energy=-673.53054394 pbc="T T T"
Zr      15.66432000       2.73096000      16.13813000       0.59475500      -0.22832800       0.13563100
Zr      13.82872000       0.64778000      11.16976000      -0.37684000       0.35307600       0.03451300
Zr      13.39584000       0.29540000      17.32563000      -0.99385600      -1.94389800       1.79574600
Zr      11.75763000      18.53372000      13.35335000       0.32719300      -0.91964100      -0.07714700
Zr      19.36399000       0.06197000      13.57822000      -0.42263400       1.00181200       0.27509600
Zr      18.47950000      18.52233000      16.74538000       0.36549600      -0.25918400       0.12615700
Zr      11.88092000       2.82628000      14.97620000      -0.89959200       1.06576300       0.96660200
Zr       9.79761000      20.79429000      14.33185000      -0.28675700      -0.36842600      -0.17756100
Zr      16.74479000       5.62334000      17.30794000       0.25788300       0.45662400      -0.77813800
Zr      16.06072000       1.78300000      13.21484000       0.77081100      -0.82305300      -0.16172900
Zr      16.50895000       0.37867000      18.94582000      -0.35175100      -0.47401000       0.43660700
Zr      15.56903000      18.43685000      12.46529000       0.17641800      -0.00800900      -0.78184300
Zr      10.35209000       0.39249000      16.82900000      -0.16093700       2.22427200       0.71060400
Zr      11.02844000       1.20479000      12.37903000      -0.88006800      -1.42032200      -0.14568800
Zr      15.84334000       8.25688000      15.65135000       0.03064000       0.07847500      -0.02053000
Zr      16.31166000      21.07877000      15.59446000       0.28726800      -0.15087900       0.04494600
Zr      13.25360000      20.02968000      11.07437000       1.60232000       0.22282600      -0.36279300
Zr      16.78331000      15.13597000      16.43880000      -0.05858200       0.37197200       0.38316900
Zr      14.51469000       5.41575000      15.00210000       0.30600400      -0.05298300      -0.07354500
Zr      18.02858000       2.92296000      18.52668000       0.42675600      -0.39045300      -0.46648900
Zr      13.23928000      21.98920000      14.04095000       0.42052100      -2.09292900       0.26610500
Zr      14.15348000      15.54639000      14.21507000       0.50109800       0.16397900       0.42162100
Zr      19.37803000      22.10036000      16.76074000      -0.44822400       0.84342200       0.10305700
Zr      18.47997000      19.44260000      13.31838000      -0.86804500      -0.64346200       0.16176900
O       11.89619000      22.40660000      15.69845000       0.01649600       1.21788200       0.14015200
O       11.99418000       1.52870000      10.75125000       0.24035400       0.21658700       0.09076800
O       15.25068000      16.16937000      15.78542000      -0.30173200      -0.41192100      -0.54244200
O       18.20435000      21.75997000      15.00370000      -0.08288300      -0.51271600      -0.37127600
O       17.12548000      13.86169000      14.98320000       0.32164200      -0.40769200      -0.41795500
O       11.76857000      20.36354000      14.34292000      -0.14453400      -0.08244100       0.33761700
O       15.44024000       3.54178000      14.22944000      -0.29026900       0.55951600      -0.00048800
O       17.18555000      21.87518000      17.41347000       0.52942100       0.00402200      -0.43126500
O       16.53412000      19.90890000      13.79611000       0.17027800       0.28929500       0.52977500
O       11.55833000       0.25489000      18.36641000       1.20012800      -0.30205700      -0.93759700
O       12.34442000      21.85267000      12.21027000       0.29366900       0.51811300      -0.52630800
O       17.42644000       7.32823000      16.36427000       0.13398700      -0.43113100       0.19791200
O       16.73951000      19.33487000      16.52534000      -0.18870800       0.46092400      -0.21720100
O       14.84673000      18.86898000      10.67147000      -0.29436400       0.20387700       1.14889500
O       16.15298000       2.10690000      18.02100000       0.07972600       0.03641900      -0.19195600
O       12.78310000       1.47944000      13.60489000      -0.22596100      -0.46137100       0.21165800
O        9.81935000      18.91176000      13.59802000      -0.08236400       0.03419400       0.36552200
O       19.26251000       1.40477000      17.75789000      -0.44194600      -0.52938700      -0.23669800
O       17.97337000       1.37528000      12.87559000       0.82384500      -0.33888400       0.39794400
O       18.07440000      16.55293000      17.12918000       0.20405600       0.51269700       0.00401700
O       17.55667000      18.27010000      12.08911000       0.19639400      -0.04476600      -0.01816400
O        9.07721000      21.66763000      16.05808000       0.06246200      -0.97121600      -0.55145300
O       12.69516000       4.71134000      15.02599000      -0.41978800      -1.03343100       0.01522600
O       17.54238000       1.67709000      20.00783000       0.41820100      -0.09664000       0.67293900
O       14.36620000      21.53906000      15.85035000      -0.32791100       0.10064200       0.33936800
O       11.84557000      18.71742000      11.35240000      -0.73955700      -0.25604800       0.77694600
O       14.34486000      13.46014000      14.38470000       0.21606800       0.10495400       0.61454100
O       19.19880000      18.52460000      14.93244000      -0.30706200       0.02869600      -0.38560900
O       10.46139000       2.40427000      16.41762000       1.11008500      -0.96316000      -1.22602600
O       15.26495000       7.10305000      14.17666000       0.11150800       0.22977100      -0.43117400
O       17.56100000       4.83040000      18.94677000      -0.20216800       0.54067300       0.41420300
O       16.12188000       1.01557000      15.16144000      -0.04575600       0.48773300       0.38826900
O       14.05920000      21.63984000      10.08074000      -0.11887900      -0.19140500      -0.60835500
O       15.08694000      16.53948000      12.82227000       0.36324000       0.21270400      -0.00657900
O       19.56352000      20.94277000      12.57956000       0.03156200       0.05732800      -0.19891700
O       10.62032000       2.80720000      13.41578000       0.06365000       0.25529600       0.59792300
O       17.48947000       3.82575000      16.59766000      -0.53412600      -0.20627800      -0.20233300
O       14.99437000      22.42169000      12.97559000      -1.04962800       0.47212400       0.30168400
O       14.61523000      22.47485000      18.92371000      -0.58453400       0.06300900      -0.48971300
O       12.59328000      16.72413000      14.08238000      -0.99839000       0.84346300      -0.06923000
O       20.52941000       0.11786000      15.17325000       0.10860100       0.21411400       0.19113700
O        9.62470000      22.13753000      12.98166000       0.94070800       1.20668700      -0.29044100
O       14.92552000       6.70035000      16.69820000      -0.12370200      -0.12631500       0.38370000
O       15.24178000       1.97880000      11.48545000      -0.18834400       0.83816900      -1.28847600
O       13.66760000       1.98830000      16.48763000       0.11889200       1.48235500      -0.61757200
O       13.76977000      19.73674000      13.04556000       0.45170600      -0.81587200      -0.45505000
O       19.56155000      20.20612000      17.37218000      -0.14942100       0.08811500       0.02778300
Zr      15.73615000      12.48022000      15.45167000      -0.48987900       0.33408000       0.15909800
O       15.75034000      10.34591000      15.52353000       0.14509000       0.04145600       0.08609500
O       15.88225000      13.50624000      17.19547000      -0.34414000      -0.46648100      -0.50911100
