74
Lattice="30.0 0.0 0.0 0.0 22.52911 0.0 0.0 0.0 30.0" Properties=species:S:1:pos:R:3:forces:R:3 energy=-673.49004702 pbc="T T T"
Zr      15.67738000       2.73210000      16.13500000       0.31053400      -0.35143600      -0.06710900
Zr      13.82590000       0.64825000      11.17396000      -0.37365900       0.51322900       0.16134500
Zr      13.40454000       0.29169000      17.32540000      -1.09770800      -1.25604700       1.45229200
Zr      11.77080000      18.52812000      13.36151000       0.02365300      -0.37399100      -0.47358200
Zr      19.36327000       0.07403000      13.57178000      -0.64362100       0.83454900       0.05749100
Zr      18.47420000      18.53519000      16.75006000       0.42633500      -0.48930500       0.11648500
Zr      11.89442000       2.83123000      14.99161000      -0.28358400       0.54925500      -0.07250900
Zr       9.79567000      20.79156000      14.33387000       0.22217300       0.12778300      -0.99774900
Zr      16.75913000       5.61146000      17.29413000       0.03347900       0.62930100      -0.83692500
Zr      16.06275000       1.77794000      13.21090000       0.47783300      -0.77078300      -0.18127400
Zr      16.49395000       0.37381000      18.94192000       0.69393100      -0.36192800       0.56863200
Zr      15.56247000      18.44429000      12.46719000       0.13263600       0.10182800      -0.81862300
Zr      10.35207000       0.39926000      16.81919000       0.66259700       1.41662600       1.24515000
Zr      11.03117000       1.20284000      12.37289000      -0.87640700      -2.44939600      -0.26745400
Zr      15.83895000       8.24464000      15.64606000       0.11335800       0.38825200       0.04562800
Zr      16.30376000      21.07689000      15.59075000       0.26334000      -0.01721700       0.00763100
Zr      13.25747000      20.02255000      11.07140000       1.56000200       0.10449500      -0.14834900
Zr      16.78280000      15.14046000      16.44284000      -0.01017700      -0.02094800       0.21165400
Zr      14.51170000       5.41336000      14.99133000       0.32337600      -0.17925100       0.03676500
Zr      18.03161000       2.92461000      18.53033000       0.21535900      -1.05822900      -0.32668400
Zr      13.23569000      22.00229000      14.06429000       0.33798500      -2.05966200      -0.15151900
Zr      14.14018000      15.55925000      14.21291000       0.88047300      -0.30100700       0.60635900
Zr      19.37309000      22.09779000      16.75402000      -0.56917500       0.81742200       0.16907200
Zr      18.48020000      19.46190000      13.32891000      -1.06900100      -0.82052500      -0.08978900
O       11.86825000      22.34211000      15.67890000       0.06604200       1.63268000       0.78067800
O       11.98120000       1.52038000      10.74062000       0.65350900       0.28567600      -0.17458400
O       15.24551000      16.15191000      15.78444000      -0.47907800      -0.19870300      -0.58836500
O       18.20006000      21.73349000      14.99437000       0.10395100      -0.41248400      -0.33889200
O       17.11479000      13.85562000      14.99098000       0.47073000      -0.22705900      -0.49798200
O       11.77590000      20.36094000      14.32752000      -0.14005600      -0.32714500       0.28565100
O       15.44991000       3.53330000      14.23839000      -0.33218900       0.76637500      -0.14154000
O       17.16529000      21.85910000      17.41541000       0.67280300       0.01094000      -0.60063600
O       16.53881000      19.92001000      13.78747000       0.01436400       0.40148800       0.71484200
O       11.58856000       0.20743000      18.38357000       0.94279100      -0.00643200      -1.55403700
O       12.33141000      21.89611000      12.25127000       0.43715700       0.12073100      -0.92109400
O       17.42941000       7.34194000      16.38123000       0.06269500      -0.52988500       0.08802600
O       16.73496000      19.34243000      16.52234000      -0.25749700       0.36090300      -0.20588400
O       14.85766000      18.87741000      10.65674000      -0.40551000       0.14280200       1.26829500
O       16.15677000       2.08611000      18.00056000       0.09050300       0.13211000      -0.00291100
O       12.81861000       1.47518000      13.63780000      -0.42726500      -0.07816500       0.15269100
O        9.82590000      18.93651000      13.60478000      -0.07109700      -0.51156600       0.23581100
O       19.25648000       1.38506000      17.76761000      -0.39171100      -0.55680400      -0.30685400
O       17.97400000       1.38584000      12.88652000       0.95010200      -0.33419100       0.29800400
O       18.08934000      16.55027000      17.11419000       0.21322300       0.73697400       0.05256800
O       17.52449000      18.27547000      12.11062000       0.69546400       0.00836900      -0.02849800
O        9.14745000      21.65314000      16.04159000      -0.79393800      -0.97664200      -0.07895100
O       12.68800000       4.69441000      15.02311000      -0.21994200      -0.56134700       0.04802400
O       17.52150000       1.67632000      20.01490000       0.48388300       0.12002600       0.51934800
O       14.34917000      21.56047000      15.85958000       0.01561900      -0.05161500       0.49048000
O       11.83544000      18.71709000      11.33444000      -0.62108700      -0.26582100       1.14904400
O       14.34518000      13.44585000      14.44136000      -0.21860900       0.50681400       0.16962700
O       19.19653000      18.54223000      14.93607000      -0.25098100       0.03841600      -0.26678300
O       10.49590000       2.34456000      16.33268000       0.42510700      -0.33370300      -0.41097700
O       15.26106000       7.09329000      14.15751000       0.12354700       0.22252000      -0.21382000
O       17.54755000       4.81280000      18.93861000      -0.18108900       0.76971000       0.50554900
O       16.13327000       1.02010000      15.15693000      -0.05724700       0.30110800       0.48543900
O       14.06200000      21.61706000      10.10703000      -0.11000100       0.12755500      -0.73150500
O       15.09469000      16.54551000      12.83764000       0.24215300       0.07771100      -0.00948200
O       19.55614000      20.95163000      12.56766000       0.08140000       0.10872800      -0.17003200
O       10.62343000       2.73297000      13.40578000      -0.12354600       1.49708600       1.28003600
O       17.47808000       3.78544000      16.60185000      -0.19218900       0.13115900      -0.21067900
O       14.98100000      22.42949000      12.95834000      -0.77790200       0.46350300       0.37257900
O       14.64020000      22.48374000      18.91848000      -1.61388200      -0.14333300      -0.49128100
O       12.59781000      16.74137000      14.09013000      -1.11042000       0.79978800      -0.00723700
O       20.51636000       0.14237000      15.14892000       0.21175400       0.16271400       0.55461100
O        9.60962000      22.16642000      12.98738000       0.88919900       0.75869100      -0.01036100
O       14.92730000       6.69512000      16.70791000      -0.06403500      -0.14967600       0.14412500
O       15.23389000       2.00848000      11.49483000      -0.36660700       0.64780200      -1.39310800
O       13.65325000       2.01858000      16.44099000      -0.07532000       0.63417500      -0.10333300
O       13.79101000      19.73983000      13.04800000       0.24948400      -0.88351100      -0.57538500
O       19.55131000      20.21043000      17.40283000      -0.12748600       0.18095500      -0.10692300
Zr      15.72807000      12.47547000      15.45637000      -0.13988900       0.27446500       0.42764100
O       15.76221000      10.35233000      15.53296000       0.07099200      -0.42785300       0.06087400
O       15.88442000      13.50986000      17.18876000      -0.37442700      -0.40688500      -0.19978600
