74
Lattice="30.0 0.0 0.0 0.0 22.52911 0.0 0.0 0.0 30.0" Properties=species:S:1:pos:R:3:forces:R:3 energy=-673.44327174 pbc="T T T"
Zr      15.68285000       2.73231000      16.13373000       0.12801200      -0.37035200      -0.15833900
Zr      13.82450000       0.64879000      11.17574000      -0.37451400       0.57997900       0.15977200
Zr      13.40721000       0.28917000      17.32644000      -1.12400600      -0.92719100       1.24415100
Zr      11.77611000      18.52554000      13.36446000      -0.12696400      -0.16324300      -0.59551500
Zr      19.36253000       0.07947000      13.56929000      -0.66202700       0.70103200      -0.00600500
Zr      18.47239000      18.53998000      16.75202000       0.43456900      -0.50111700       0.08076600
Zr      11.89948000       2.83368000      14.99786000       0.06662800       0.34534400      -0.56149300
Zr       9.79498000      20.79050000      14.33407000       0.41582900       0.29562600      -1.34255000
Zr      16.76490000       5.60717000      17.28803000      -0.05873000       0.68722300      -0.83254000
Zr      16.06396000       1.77535000      13.20921000       0.31909800      -0.71105700      -0.28234900
Zr      16.48834000       0.37159000      18.94077000       1.05035800      -0.30660100       0.57900900
Zr      15.55996000      18.44731000      12.46734000       0.13788300       0.13794700      -0.76137100
Zr      10.35244000       0.40313000      16.81613000       0.85601700       0.99172300       1.36462000
Zr      11.03162000       1.20040000      12.37027000      -0.86928700      -2.70474600      -0.30482400
Zr      15.83727000       8.24001000      15.64398000       0.15243900       0.46664100       0.07516400
Zr      16.30082000      21.07611000      15.58929000       0.24989200       0.04137900      -0.01029200
Zr      13.26017000      20.01981000      11.07008000       1.43423700       0.03566700      -0.07427800
Zr      16.78258000      15.14229000      16.44463000       0.00864800      -0.18867300       0.10513000
Zr      14.51075000       5.41230000      14.98706000       0.28328000      -0.23863000       0.07081200
Zr      18.03301000       2.92458000      18.53152000       0.11699100      -1.24395500      -0.26080700
Zr      13.23454000      22.00598000      14.07354000       0.24976900      -2.01401900      -0.28822700
Zr      14.13549000      15.56420000      14.21247000       0.91128100      -0.40157900       0.61607300
Zr      19.37073000      22.09738000      16.75146000      -0.60242500       0.77899300       0.16386300
Zr      18.47953000      19.46900000      13.33307000      -1.10343900      -0.81364100      -0.19390300
O       11.85736000      22.32297000      15.67389000       0.10282600       1.73332200       0.94787800
O       11.97844000       1.51822000      10.73587000       0.78047100       0.29950900      -0.25013100
O       15.24156000      16.14395000      15.78159000      -0.48711200      -0.12508200      -0.54941300
O       18.19863000      21.72112000      14.98919000       0.18233000      -0.35647600      -0.31668800
O       17.11240000      13.85206000      14.99201000       0.50014900      -0.11768900      -0.46303800
O       11.77820000      20.35871000      14.32263000      -0.10569900      -0.36828400       0.26717800
O       15.45239000       3.53300000      14.24149000      -0.32142300       0.78858100      -0.21801600
O       17.15995000      21.85271000      17.41375000       0.68496500       0.05993300      -0.58173200
O       16.54088000      19.92604000      13.78691000      -0.06296000       0.41411400       0.73564300
O       11.60479000       0.18826000      18.38433000       0.81327300       0.11224900      -1.67203100
O       12.32795000      21.91427000      12.26403000       0.49176600      -0.06433500      -1.02410300
O       17.43092000       7.34524000      16.38846000       0.02636800      -0.54203400       0.02921800
O       16.73210000      19.34706000      16.52025000      -0.24826500       0.27582100      -0.17683300
O       14.86038000      18.88144000      10.65616000      -0.41158000       0.09400500       1.21424500
O       16.15865000       2.07833000      17.99222000       0.11010800       0.12362300       0.12457900
O       12.83111000       1.47283000      13.65160000      -0.49054700       0.04181000       0.11352600
O        9.82822000      18.94467000      13.60857000      -0.08682600      -0.70686100       0.18914100
O       19.25240000       1.37487000      17.77023000      -0.38026900      -0.52253800      -0.30439300
O       17.97820000       1.38861000      12.89221000       0.88693900      -0.27919600       0.24812100
O       18.09619000      16.55216000      17.10841000       0.17428800       0.75107400       0.06441900
O       17.51418000      18.27761000      12.11908000       0.85771400       0.01824100      -0.04610700
O        9.17276000      21.64322000      16.03424000      -1.05378100      -0.89217500       0.18104700
O       12.68402000       4.68485000      15.02213000      -0.07018200      -0.26978100       0.06569100
O       17.51519000       1.67635000      20.02007000       0.47370900       0.16556200       0.40151700
O       14.34217000      21.56891000      15.86520000       0.15356600      -0.12460400       0.51488400
O       11.82865000      18.71582000      11.33185000      -0.50648200      -0.21515100       1.21376800
O       14.34477000      13.44195000      14.46503000      -0.40462100       0.66428500      -0.01918100
O       19.19452000      18.54941000      14.93627000      -0.22234700       0.01918600      -0.17609500
O       10.51208000       2.31885000      16.29638000       0.01502400      -0.10396300       0.01977000
O       15.26003000       7.09034000      14.14878000       0.12594800       0.21843000      -0.10206800
O       17.54141000       4.80887000      18.93744000      -0.16100100       0.78220400       0.49786300
O       16.13756000       1.02335000      15.15713000      -0.04703500       0.21394800       0.45666100
O       14.06264000      21.60825000      10.11450000      -0.10880400       0.25248400      -0.74716500
O       15.09890000      16.54837000      12.84371000       0.17622200       0.00039600       0.00719200
O       19.55351000      20.95557000      12.56218000       0.08460600       0.12129200      -0.14539400
O       10.62431000       2.70867000      13.40662000      -0.19278500       1.88071400       1.46172600
O       17.47242000       3.76966000      16.60262000      -0.01448200       0.26825900      -0.18425800
O       14.97213000      22.43455000      12.95298000      -0.61418300       0.46479700       0.38864500
O       14.64417000      22.48686000      18.91430000      -1.85598300      -0.21543300      -0.43523900
O       12.59497000      16.75170000      14.09312000      -1.02811200       0.67026900       0.03728500
O       20.51197000       0.15285000      15.14126000       0.23424800       0.14437100       0.68268300
O        9.60741000      22.18151000      12.98937000       0.85408800       0.56690000       0.09076800
O       14.92768000       6.69242000      16.71259000      -0.03274000      -0.14453000       0.03613200
O       15.22932000       2.02320000      11.49270000      -0.36014600       0.53105100      -1.27046300
O       13.64737000       2.03405000      16.42151000      -0.10943500       0.29134100       0.13317000
O       13.80069000      19.73738000      13.04663000       0.16414100      -0.86242800      -0.57844200
O       19.54667000      20.21284000      17.41469000      -0.11890700       0.18993400      -0.15442400
Zr      15.72470000      12.47380000      15.45851000       0.02465000       0.20286500       0.51195600
O       15.76730000      10.35347000      15.53700000       0.03733100      -0.57955200       0.04792600
O       15.88372000      13.50951000      17.18498000      -0.35989100      -0.33684900      -0.07246200
