74
Lattice="30.0 0.0 0.0 0.0 22.52911 0.0 0.0 0.0 30.0" Properties=species:S:1:pos:R:3:forces:R:3 energy=-673.41855515 pbc="T T T"
Zr      15.68560000       2.73236000      16.13308000       0.02540100      -0.37320600      -0.20423200
Zr      13.82375000       0.64915000      11.17665000      -0.37320100       0.61437300       0.14732700
Zr      13.40835000       0.28777000      17.32716000      -1.13518200      -0.76484500       1.13149800
Zr      11.77873000      18.52423000      13.36584000      -0.20874300      -0.06232100      -0.64870000
Zr      19.36207000       0.08229000      13.56805000      -0.65262700       0.62135400      -0.02714700
Zr      18.47157000      18.54228000      16.75300000       0.43546400      -0.49022700       0.05697200
Zr      11.90199000       2.83496000      15.00088000       0.25384200       0.25159300      -0.81260900
Zr       9.79470000      20.79001000      14.33396000       0.50658600       0.36514300      -1.50519700
Zr      16.76776000       5.60515000      17.28486000      -0.10428500       0.71420300      -0.82268200
Zr      16.06462000       1.77395000      13.20833000       0.23540600      -0.67184700      -0.34674800
Zr      16.48571000       0.37044000      18.94029000       1.19467600      -0.28074900       0.57539900
Zr      15.55873000      18.44883000      12.46729000       0.14943300       0.15138800      -0.71858900
Zr      10.35276000       0.40522000      16.81483000       0.91778900       0.76404900       1.40594900
Zr      11.03170000       1.19877000      12.36892000      -0.86700200      -2.77017200      -0.30690500
Zr      15.83646000       8.23779000      15.64295000       0.17251800       0.49470100       0.09007100
Zr      16.29939000      21.07573000      15.58856000       0.24352900       0.07035000      -0.01903400
Zr      13.26174000      20.01846000      11.06941000       1.35166700       0.00106400      -0.04151400
Zr      16.78248000      15.14317000      16.44554000       0.01658500      -0.26845200       0.04602800
Zr      14.51032000       5.41174000      14.98494000       0.25696000      -0.26909700       0.08654500
Zr      18.03373000       2.92437000      18.53207000       0.06671700      -1.31321200      -0.22781800
Zr      13.23400000      22.00749000      14.07809000       0.19608300      -1.98502700      -0.34658400
Zr      14.13331000      15.56660000      14.21236000       0.90088200      -0.43510000       0.60972700
Zr      19.36946000      22.09730000      16.75022000      -0.61460700       0.75394800       0.15445100
Zr      18.47902000      19.47240000      13.33511000      -1.10911300      -0.79343100      -0.24385600
O       11.85204000      22.31502000      15.67223000       0.13059000       1.76546000       1.00392000
O       11.97775000       1.51741000      10.73329000       0.82881800       0.30196800      -0.27364500
O       15.23916000      16.13988000      15.77967000      -0.47531800      -0.09136300      -0.51678900
O       18.19807000      21.71465000      14.98633000       0.22042200      -0.32457200      -0.30322900
O       17.11166000      13.85018000      14.99210000       0.50655100      -0.06010900      -0.43259300
O       11.77924000      20.35728000      14.32045000      -0.08268800      -0.37168400       0.26088500
O       15.45332000       3.53357000      14.24285000      -0.31042900       0.78531500      -0.25775300
O       17.15792000      21.84958000      17.41240000       0.68117100       0.09439000      -0.55323900
O       16.54186000      19.92940000      13.78729000      -0.10364200       0.41177300       0.73288300
O       11.61359000       0.17882000      18.38321000       0.73944300       0.16939500      -1.70004700
O       12.32667000      21.92325000      12.26946000       0.51604000      -0.15671100      -1.06001500
O       17.43169000       7.34639000      16.39208000       0.00825600      -0.54228800      -0.00224600
O       16.73045000      19.34963000      16.51906000      -0.23660700       0.22540100      -0.15756400
O       14.86136000      18.88352000      10.65698000      -0.40586200       0.06510500       1.16645000
O       16.15967000       2.07459000      17.98817000       0.12204400       0.11099500       0.19469200
O       12.83689000       1.47169000      13.65857000      -0.51878400       0.08860500       0.08920300
O        9.82929000      18.94812000      13.61063000      -0.09790900      -0.79164800       0.16913100
O       19.25003000       1.36933000      17.77126000      -0.37656400      -0.49480100      -0.29612700
O       17.98110000       1.38972000      12.89527000       0.83056100      -0.24068500       0.22062500
O       18.09976000      16.55378000      17.10559000       0.14520600       0.73939600       0.06878100
O       17.50982000      18.27868000      12.12324000       0.92563800       0.02106200      -0.05606200
O        9.18442000      21.63748000      16.03072000      -1.15997300      -0.83263800       0.31783800
O       12.68195000       4.67982000      15.02170000       0.01408900      -0.10661800       0.07459700
O       17.51248000       1.67651000      20.02301000       0.46169100       0.17654900       0.33467500
O       14.33881000      21.57300000      15.86845000       0.21832300      -0.16341000       0.51418000
O       11.82481000      18.71498000      11.33166000      -0.43813300      -0.18116000       1.22722400
O       14.34423000      13.44059000      14.47678000      -0.49128100       0.73638600      -0.10934500
O       19.19332000      18.55300000      14.93619000      -0.20698000       0.00507600      -0.12517100
O       10.52020000       2.30596000      16.27831000      -0.20926500      -0.00231400       0.24870100
O       15.25962000       7.08908000      14.14433000       0.12698900       0.21596100      -0.04475900
O       17.53821000       4.80763000      18.93730000      -0.14721200       0.77019200       0.48433900
O       16.13965000       1.02516000      15.15765000      -0.03946700       0.17018100       0.42808200
O       14.06286000      21.60409000      10.11754000      -0.10853800       0.31098400      -0.74789900
O       15.10117000      16.54981000      12.84673000       0.14177800      -0.03840400       0.01678900
O       19.55228000      20.95763000      12.55932000       0.08258500       0.12497000      -0.13087200
O       10.62459000       2.69824000      13.40833000      -0.21685100       2.01686200       1.51252000
O       17.46957000       3.76204000      16.60284000       0.08034000       0.33394900      -0.16569200
O       14.96716000      22.43748000      12.95067000      -0.52468200       0.46425700       0.39633500
O       14.64450000      22.48822000      18.91183000      -1.91737600      -0.24402200      -0.39480300
O       12.59262000      16.75745000      14.09464000      -0.96176200       0.58085800       0.06367000
O       20.51000000       0.15819000      15.13805000       0.23945800       0.13496600       0.73827600
O        9.60708000      22.18954000      12.99042000       0.83310200       0.47414600       0.13267500
O       14.92784000       6.69095000      16.71497000      -0.01651200      -0.14001400      -0.01771400
O       15.22672000       2.03101000      11.49047000      -0.34127200       0.46427000      -1.17984100
O       13.64436000       2.04205000      16.41193000      -0.11165200       0.13508700       0.24867200
O       13.80566000      19.73538000      13.04543000       0.12172500      -0.84115300      -0.56981000
O       19.54426000      20.21421000      17.42045000      -0.11471900       0.18791900      -0.17536000
Zr      15.72303000      12.47301000      15.45966000       0.10790800       0.16246100       0.54576400
O       15.76986000      10.35353000      15.53905000       0.02004200      -0.64142500       0.04133300
O       15.88304000      13.50902000      17.18302000      -0.34733700      -0.29479800      -0.01180600
