74
Lattice="30.0 0.0 0.0 0.0 22.52911 0.0 0.0 0.0 30.0" Properties=species:S:1:pos:R:3:forces:R:3 energy=-673.30180065 pbc="T T T"
Zr      15.70134000       2.73183000      16.12866000      -0.66970600      -0.30291900      -0.44128800
Zr      13.81853000       0.65272000      11.18221000      -0.30633000       0.82849000      -0.08631000
Zr      13.41257000       0.27842000      17.33341000      -1.13631300       0.11457100       0.36930200
Zr      11.79334000      18.51672000      13.37233000      -0.74279200       0.44642800      -0.84620300
Zr      19.35802000       0.09984000      13.56072000      -0.32510600       0.00139600       0.03459000
Zr      18.46766000      18.55479000      16.75880000       0.40281500      -0.23408000      -0.10986500
Zr      11.91799000       2.84272000      15.01596000       1.27626800      -0.16025600      -2.13387300
Zr       9.79447000      20.78814000      14.32954000       0.91514300       0.54952900      -2.15863600
Zr      16.78413000       5.59492000      17.26458000      -0.35568100       0.81872200      -0.65682900
Zr      16.06867000       1.76444000      13.20213000      -0.25697800      -0.33112900      -0.81040800
Zr      16.47321000       0.36314000      18.93869000       1.43297900      -0.20976900       0.45462200
Zr      15.55197000      18.45809000      12.46567000       0.37748300       0.10228500      -0.27688700
Zr      10.35667000       0.41828000      16.81033000       0.82487200      -0.64569900       1.47953600
Zr      11.03028000       1.18325000      12.36044000      -0.86479900      -2.14009200       0.00225700
Zr      15.83216000       8.22586000      15.63721000       0.28642400       0.51195800       0.17860400
Zr      16.29156000      21.07374000      15.58422000       0.22908200       0.23783600      -0.04136900
Zr      13.27355000      20.01041000      11.06549000       0.66190600      -0.12872000       0.07861500
Zr      16.78190000      15.14751000      16.45075000       0.03405100      -0.62252200      -0.33577100
Zr      14.50828000       5.40775000      14.97278000       0.10137900      -0.40627400       0.15506600
Zr      18.03789000       2.92015000      18.53491000      -0.22606700      -1.39754000      -0.04695200
Zr      13.23107000      22.01214000      14.10386000      -0.20361400      -1.74120700      -0.51779900
Zr      14.12232000      15.57967000      14.21293000       0.53519600      -0.48496500       0.44030900
Zr      19.36064000      22.09835000      16.74321000      -0.61863000       0.51983300       0.02276200
Zr      18.47364000      19.49072000      13.34639000      -1.00104800      -0.48889400      -0.47253900
O       11.82329000      22.29051000      15.67537000       0.43521600       1.67741700       0.89824900
O       11.98461000       1.51637000      10.71474000       0.86382500       0.24887200      -0.18256300
O       15.21983000      16.11540000      15.76303000      -0.18794600       0.05582900      -0.13928900
O       18.19826000      21.67334000      14.96606000       0.40362200      -0.10675900      -0.21745100
O       17.11353000      13.83954000      14.98815000       0.41943000       0.24638200      -0.11957800
O       11.78492000      20.34465000      14.31085000       0.09439900      -0.14947200       0.26391600
O       15.45531000       3.54621000      14.24677000      -0.18544000       0.57995300      -0.46725500
O       17.15418000      21.83337000      17.39861000       0.54696800       0.39641600      -0.18618900
O       16.54544000      19.95399000      13.79823000      -0.35606200       0.27157900       0.52378500
O       11.67264000       0.12662000      18.35573000       0.12076300       0.43413000      -1.41322500
O       12.32597000      21.97211000      12.28772000       0.59809000      -0.67995100      -1.07369000
O       17.43604000       7.34650000      16.41263000      -0.07256600      -0.47364200      -0.20598800
O       16.71824000      19.36627000      16.51056000      -0.10341600      -0.13884800       0.00372300
O       14.86239000      18.89588000      10.67478000      -0.26075500      -0.15887600       0.61093400
O       16.16748000       2.05356000      17.96835000       0.18780600      -0.02293800       0.59705800
O       12.86382000       1.46669000      13.69987000      -0.63256800       0.16789200      -0.12420000
O        9.83405000      18.95709000      13.62451000      -0.19269400      -1.05459700       0.11083700
O       19.23142000       1.33154000      17.77397000      -0.38292300      -0.19042900      -0.14807400
O       18.00666000       1.39435000      12.91531000       0.21258800       0.12385700       0.01799600
O       18.12169000      16.57179000      17.08999000      -0.12998600       0.44918400       0.07632200
O       17.49674000      18.28529000      12.14673000       1.09179600       0.02509300      -0.12432100
O        9.23676000      21.59492000      16.01689000      -1.45978500      -0.37217600       1.05395700
O       12.67188000       4.65266000      15.02028000       0.53257500       0.95470900       0.11215800
O       17.50196000       1.67958000      20.04294000       0.32338200       0.10040700      -0.11131100
O       14.32304000      21.59409000      15.89355000       0.52754800      -0.42199900       0.30190900
O       11.79843000      18.70872000      11.34561000       0.05328900       0.09495500       1.06009300
O       14.33343000      13.44300000      14.54276000      -0.81131700       0.99145100      -0.50757000
O       19.18402000      18.57374000      14.93530000      -0.10536700      -0.10951900       0.18339700
O       10.56018000       2.23212000      16.18024000      -1.58953100       0.46832700       1.54451500
O       15.25885000       7.08431000      14.11892000       0.12438700       0.20894300       0.28414500
O       17.51796000       4.80922000      18.94204000      -0.03790400       0.47982600       0.28417100
O       16.15162000       1.03704000      15.16508000       0.02519000      -0.07548700       0.09933700
O       14.06279000      21.58457000      10.12621000      -0.12156200       0.55379200      -0.66389300
O       15.11554000      16.55703000      12.86482000      -0.03345300      -0.19905200       0.04475100
O       19.54597000      20.97132000      12.54125000       0.02718800       0.11391000      -0.03052600
O       10.62338000       2.66335000      13.43701000      -0.15994400       1.93317600       1.14441500
O       17.45586000       3.72276000      16.60250000       0.63624500       0.64806400      -0.01804300
O       14.93339000      22.46042000      12.94220000       0.04870100       0.43190400       0.43506100
O       14.62304000      22.49282000      18.89359000      -1.37466800      -0.29568600       0.03808000
O       12.56875000      16.79606000      14.10495000      -0.33363700      -0.18211800       0.26277700
O       20.50135000       0.19102000      15.12931000       0.17298200       0.08654100       0.90051700
O        9.61508000      22.24081000      12.99891000       0.67417500       0.00525900       0.25242400
O       14.92888000       6.68070000      16.72760000       0.07610600      -0.09329300      -0.30610200
O       15.20793000       2.08104000      11.46522000      -0.09315700      -0.01146000      -0.38472200
O       13.62562000       2.08786000      16.36107000       0.06375400      -0.53547900       0.84657300
O       13.83547000      19.71385000      13.03169000      -0.12305500      -0.58950700      -0.39614300
O       19.52879000      20.22438000      17.45165000      -0.08607300       0.10312800      -0.27235200
Zr      15.71371000      12.46854000      15.46764000       0.48929400      -0.06684200       0.58813100
O       15.78481000      10.34507000      15.55145000      -0.07992400      -0.76946300       0.00300600
O       15.87514000      13.50348000      17.17248000      -0.21354600       0.00095700       0.26744800
