74
Lattice="30.0 0.0 0.0 0.0 22.52911 0.0 0.0 0.0 30.0" Properties=species:S:1:pos:R:3:forces:R:3 energy=-673.28693541 pbc="T T T"
Zr      15.70373000       2.73163000      16.12780000      -0.78009300      -0.27898200      -0.46715600
Zr      13.81756000       0.65358000      11.18311000      -0.28072800       0.86390800      -0.14826200
Zr      13.41284000       0.27686000      17.33465000      -1.11364600       0.24466800       0.22543500
Zr      11.79550000      18.51562000      13.37309000      -0.83107700       0.50892000      -0.85336300
Zr      19.35719000       0.10277000      13.55953000      -0.23044200      -0.11722300       0.08042400
Zr      18.46718000      18.55671000      16.75973000       0.39152200      -0.16808600      -0.13563300
Zr      11.92097000       2.84396000      15.01776000       1.37962900      -0.20536800      -2.27412400
Zr       9.79473000      20.78803000      14.32807000       0.95370800       0.54280600      -2.18707300
Zr      16.78670000       5.59354000      17.26100000      -0.39148800       0.82389900      -0.61136600
Zr      16.06929000       1.76273000      13.20087000      -0.32655800      -0.25991500      -0.88040400
Zr      16.47170000       0.36187000      18.93861000       1.38019000      -0.21316700       0.42598000
Zr      15.55097000      18.45965000      12.46525000       0.44671000       0.06744600      -0.17863900
Zr      10.35764000       0.42032000      16.81013000       0.74402300      -0.86552600       1.48030700
Zr      11.02973000       1.17982000      12.35901000      -0.85864800      -1.88749500       0.10249200
Zr      15.83156000       8.22411000      15.63633000       0.30318000       0.49289000       0.19210700
Zr      16.29037000      21.07349000      15.58350000       0.23347300       0.26344800      -0.03542000
Zr      13.27580000      20.00906000      11.06487000       0.53054200      -0.12585500       0.08336900
Zr      16.78182000      15.14802000      16.45152000       0.03279400      -0.65407500      -0.39632300
Zr      14.50800000       5.40696000      14.97085000       0.08793000      -0.41673100       0.16280100
Zr      18.03851000       2.91894000      18.53534000      -0.26891900      -1.36393200      -0.02050300
Zr      13.23056000      22.01223000      14.10788000      -0.27216100      -1.69182100      -0.51672400
Zr      14.12077000      15.58162000      14.21320000       0.44076800      -0.48394800       0.39852900
Zr      19.35897000      22.09874000      16.74209000      -0.60782600       0.46959000      -0.00807300
Zr      18.47238000      19.49349000      13.34807000      -0.96135900      -0.41552600      -0.49175600
O       11.81930000      22.29015000      15.67794000       0.51020100       1.61744500       0.80688800
O       11.98758000       1.51677000      10.71122000       0.82641700       0.22971100      -0.12994700
O       15.21607000      16.11145000      15.75976000      -0.10980200       0.07501800      -0.05031500
O       18.19905000      21.66625000      14.96225000       0.42387700      -0.06794600      -0.20295400
O       17.11480000      13.83816000      14.98705000       0.38492300       0.28067400      -0.05541100
O       11.78594000      20.34209000      14.30983000       0.12265200      -0.07701000       0.27102400
O       15.45516000       3.54965000      14.24654000      -0.15822900       0.51921300      -0.49049400
O       17.15481000      21.83137000      17.39572000       0.51065400       0.45227700      -0.10794800
O       16.54543000      19.95868000      13.80128000      -0.39587500       0.22900000       0.45907200
O       11.68293000       0.11888000      18.34801000      -0.01784200       0.46315500      -1.28884900
O       12.32709000      21.97895000      12.28841000       0.59605300      -0.75408300      -1.04351400
O       17.43663000       7.34547000      16.41567000      -0.07809600      -0.45087800      -0.24019600
O       16.71594000      19.36892000      16.50909000      -0.07685700      -0.19962600       0.03363200
O       14.86190000      18.89770000      10.67934000      -0.22142800      -0.20232500       0.48090000
O       16.16911000       2.05016000      17.96615000       0.19202800      -0.04319200       0.64217100
O       12.86694000       1.46623000      13.70649000      -0.64429100       0.14891300      -0.16902700
O        9.83448000      18.95642000      13.62702000      -0.20879500      -1.04658700       0.11295100
O       19.22759000       1.32477000      17.77399000      -0.38670000      -0.11966400      -0.10911400
O       18.01169000       1.39512000      12.91874000       0.08002400       0.19975400      -0.02159000
O       18.12518000      16.57589000      17.08760000      -0.18573200       0.37008600       0.07612700
O       17.49687000      18.28642000      12.15035000       1.07561300       0.02406300      -0.13598200
O        9.24233000      21.58693000      16.01648000      -1.45587000      -0.30118100       1.12255200
O       12.67107000       4.64962000      15.02027000       0.59933200       1.11085800       0.11407900
O       17.50101000       1.68037000      20.04621000       0.29445800       0.06882700      -0.18097500
O       14.32143000      21.59680000      15.89846000       0.55995900      -0.46784000       0.22977200
O       11.79394000      18.70772000      11.35026000       0.13656200       0.14501100       0.99149800
O       14.33009000      13.44538000      14.55264000      -0.81550000       0.99323900      -0.54157100
O       19.18222000      18.57697000      14.93537000      -0.08797500      -0.12980900       0.22411600
O       10.56412000       2.22081000      16.16679000      -1.76547500       0.54236400       1.69571100
O       15.25899000       7.08398000      14.11519000       0.12266700       0.20931800       0.32964000
O       17.51451000       4.81070000      18.94355000      -0.01671700       0.40691400       0.23489700
O       16.15358000       1.03896000      15.16672000       0.03684800      -0.11112700       0.02823500
O       14.06254000      21.58244000      10.12616000      -0.12649600       0.57121900      -0.63595600
O       15.11790000      16.55786000      12.86786000      -0.05258800      -0.20511300       0.03727500
O       19.54504000      20.97380000      12.53818000       0.01273800       0.10781300      -0.01369200
O       10.62276000       2.66198000      13.44446000      -0.11933500       1.78738500       0.97910000
O       17.45464000       3.71755000      16.60232000       0.71287500       0.68114900       0.00664800
O       14.92765000      22.46509000      12.94171000       0.13894400       0.41814200       0.44170000
O       14.61613000      22.49296000      18.89040000      -1.15316300      -0.28863400       0.14167800
O       12.56376000      16.80246000      14.10707000      -0.21459000      -0.32627900       0.29840900
O       20.50037000       0.19658000      15.12972000       0.14623600       0.07885900       0.89407900
O        9.61790000      22.24943000      13.00079000       0.64080400      -0.05896200       0.25047200
O       14.92916000       6.67881000      16.72918000       0.08947700      -0.08438000      -0.34494600
O       15.20450000       2.08947000      11.45980000      -0.04260000      -0.09533900      -0.23953600
O       13.62255000       2.09453000      16.35423000       0.11799800      -0.60018700       0.92279300
O       13.84022000      19.70893000      13.02849000      -0.16308200      -0.53019000      -0.34925500
O       19.52606000      20.22632000      17.45621000      -0.08071600       0.08070000      -0.28217800
Zr      15.71234000      12.46780000      15.46916000       0.51952000      -0.08526400       0.56549800
O       15.78714000      10.34209000      15.55351000      -0.09574100      -0.74717600      -0.00303400
O       15.87331000      13.50241000      17.17119000      -0.18531500       0.04638800       0.29552300
