74
Lattice="30.0 0.0 0.0 0.0 22.52911 0.0 0.0 0.0 30.0" Properties=species:S:1:pos:R:3:forces:R:3 energy=-673.23635206 pbc="T T T"
Zr      15.71032000       2.73084000      16.12493000      -1.06414900      -0.19070600      -0.50501100
Zr      13.81450000       0.65672000      11.18569000      -0.17267900       0.96254700      -0.36064600
Zr      13.41294000       0.27240000      17.33841000      -0.97386000       0.60932300      -0.24112400
Zr      11.80138000      18.51267000      13.37483000      -1.07666400       0.64753300      -0.81115100
Zr      19.35464000       0.11137000      13.55603000       0.09513500      -0.46682100       0.26443900
Zr      18.46598000      18.56236000      16.76238000       0.35524300       0.04648300      -0.19799600
Zr      11.93076000       2.84751000      15.02162000       1.48534500      -0.31441900      -2.46951600
Zr       9.79613000      20.78803000      14.32233000       1.01036600       0.47246800      -2.09726600
Zr      16.79407000       5.58997000      17.25001000      -0.48522000       0.81081600      -0.44191000
Zr      16.07088000       1.75750000      13.19652000      -0.50245300      -0.02963400      -1.04964000
Zr      16.46804000       0.35794000      18.93863000       1.13650600      -0.24400300       0.34280100
Zr      15.54832000      18.46432000      12.46394000       0.70196400      -0.08716700       0.14406300
Zr      10.36095000       0.42574000      16.81049000       0.40898600      -1.46507900       1.48868900
Zr      11.02756000       1.16855000      12.35487000      -0.79419900      -1.00430700       0.42478400
Zr      15.82995000       8.21919000      15.63383000       0.34956200       0.40557900       0.23137400
Zr      16.28697000      21.07291000      15.58134000       0.26377400       0.33855600       0.00945200
Zr      13.28276000      20.00496000      11.06308000       0.13825400      -0.05782800       0.07095000
Zr      16.78160000      15.14911000      16.45352000       0.02779300      -0.69427600      -0.55840500
Zr      14.50721000       5.40435000      14.96520000       0.09199400      -0.41529100       0.18410600
Zr      18.04018000       2.91450000      18.53661000      -0.38267200      -1.20417000       0.05315800
Zr      13.22884000      22.01146000      14.11953000      -0.45616300      -1.53524600      -0.47605800
Zr      14.11639000      15.58714000      14.21426000       0.13264800      -0.48705800       0.26858900
Zr      19.35363000      22.10017000      16.73874000      -0.56177400       0.30533800      -0.10100300
Zr      18.46804000      19.50152000      13.35277000      -0.80946000      -0.17893100      -0.50827400
O       11.80945000      22.29473000      15.68821000       0.76625400       1.37453800       0.42969600
O       11.99929000       1.51873000      10.70041000       0.65043200       0.16664200       0.06702800
O       15.20468000      16.10001000      15.75008000       0.15280900       0.12723400       0.24038300
O       18.20295000      21.64498000      14.95021000       0.45853600       0.04679100      -0.15922500
O       17.11985000      13.83513000      14.98373000       0.25332900       0.34089200       0.13717100
O       11.78947000      20.33438000      14.30777000       0.18837800       0.17148200       0.29715200
O       15.45422000       3.56159000      14.24404000      -0.07479500       0.30522300      -0.52865400
O       17.15846000      21.82716000      17.38692000       0.38679500       0.60347100       0.11781700
O       16.54386000      19.97335000      13.81184000      -0.50100700       0.07251700       0.22218600
O       11.71313000       0.09756000      18.32073000      -0.50035700       0.51327200      -0.79402400
O       12.33253000      21.99641000      12.28679000       0.56181000      -0.94619600      -0.90649400
O       17.43811000       7.34083000      16.42377000      -0.07633400      -0.36483200      -0.34221200
O       16.70889000      19.37593000      16.50488000      -0.00157700      -0.36336900       0.11981600
O       14.85975000      18.90230000      10.69433000      -0.08702500      -0.33133300       0.05229500
O       16.17467000       2.03987000      17.96201000       0.17965900      -0.07032200       0.70634700
O       12.87389000       1.46533000      13.72547000      -0.67093500       0.05749500      -0.30872000
O        9.83498000      18.95073000      13.63492000      -0.24567500      -0.93003600       0.13450400
O       19.21479000       1.30436000      17.77377000      -0.39408800       0.11458900       0.02267400
O       18.02663000       1.39834000      12.92879000      -0.31561000       0.42451200      -0.14510700
O       18.13474000      16.58922000      17.08077000      -0.35808300       0.10087900       0.07725600
O       17.50103000      18.28987000      12.16058000       0.95575000       0.01802300      -0.17219800
O        9.25372000      21.56218000      16.01938000      -1.36287200      -0.13960100       1.17362900
O       12.67093000       4.64491000      15.02064000       0.71944100       1.45757800       0.11093200
O       17.49918000       1.68288000      20.05516000       0.21096300      -0.04333700      -0.36264700
O       14.31868000      21.60308000      15.91370000       0.62040300      -0.59773500      -0.03102200
O       11.78127000      18.70540000      11.36750000       0.36414000       0.28283100       0.72508800
O       14.31724000      13.45600000      14.58006000      -0.72848000       0.91464500      -0.57760600
O       19.17659000      18.58605000      14.93646000      -0.03754200      -0.18475400       0.30512800
O       10.56919000       2.18929000      16.13313000      -2.07709000       0.82208100       1.94846900
O       15.25984000       7.08373000      14.10537000       0.11582000       0.21453100       0.43820000
O       17.50422000       4.81638000      18.94876000       0.04405200       0.17735300       0.07303600
O       16.15958000       1.04419000      15.17154000       0.06936200      -0.20254400      -0.18665900
O       14.06131000      21.57817000      10.12380000      -0.14699700       0.57881900      -0.53300600
O       15.12471000      16.55959000      12.87702000      -0.08729100      -0.17748500      -0.00938700
O       19.54228000      20.98157000      12.52903000      -0.03486400       0.08325600       0.03437900
O       10.62061000       2.66393000      13.46975000       0.02660400       1.23915100       0.39486700
O       17.45376000       3.70456000      16.60186000       0.88363400       0.73457300       0.06749500
O       14.91127000      22.48048000      12.94185000       0.37935400       0.35630900       0.46567700
O       14.59199000      22.49233000      18.88167000      -0.37829700      -0.25865000       0.49051500
O       12.54840000      16.81999000      14.11451000       0.12290100      -0.73637900       0.39452800
O       20.49789000       0.21341000      15.13413000       0.04627700       0.05553100       0.81711400
O        9.62851000      22.27474000      13.00727000       0.52312700      -0.23740200       0.21709900
O       14.93034000       6.67287000      16.73254000       0.12142600      -0.05801500      -0.43882000
O       15.19427000       2.11401000      11.44313000       0.10225100      -0.34225400       0.16736800
O       13.61399000       2.11210000      16.33736000       0.29774500      -0.72658400       1.10106300
O       13.85366000      19.69252000      13.01783000      -0.28696200      -0.33761500      -0.18400600
O       19.51768000      20.23232000      17.46877000      -0.05911700       0.00714600      -0.30444300
Zr      15.70859000      12.46556000      15.47404000       0.53948600      -0.08408300       0.45402300
O       15.79369000      10.33060000      15.55959000      -0.14165200      -0.60601300      -0.02211800
O       15.86728000      13.49948000      17.16845000      -0.10062800       0.15574500       0.34294700
