74
Lattice="30.0 0.0 0.0 0.0 22.52911 0.0 0.0 0.0 30.0" Properties=species:S:1:pos:R:3:forces:R:3 energy=-673.21501307 pbc="T T T"
Zr      15.71230000       2.73054000      16.12387000      -1.13559800      -0.15690100      -0.50391000
Zr      13.81344000       0.65796000      11.18647000      -0.12432300       0.99049500      -0.43755600
Zr      13.41277000       0.27103000      17.33963000      -0.89648000       0.72184900      -0.40419400
Zr      11.80312000      18.51182000      13.37523000      -1.14735300       0.67237500      -0.77320600
Zr      19.35379000       0.11415000      13.55492000       0.20955700      -0.57653100       0.33704000
Zr      18.46566000      18.56423000      16.76322000       0.34095600       0.11988900      -0.21204400
Zr      11.93432000       2.84862000      15.02239000       1.45218400      -0.34053000      -2.45786900
Zr       9.79680000      20.78813000      14.31997000       1.00987000       0.43293700      -2.00831100
Zr      16.79642000       5.58895000      17.24625000      -0.51193300       0.79619700      -0.37655700
Zr      16.07131000       1.75575000      13.19487000      -0.54780200       0.05245600      -1.08980300
Zr      16.46708000       0.35659000      18.93872000       1.04224800      -0.25990200       0.31929400
Zr      15.54758000      18.46586000      12.46351000       0.80181300      -0.15498100       0.25677300
Zr      10.36216000       0.42726000      16.81093000       0.27149400      -1.64525900       1.49589800
Zr      11.02666000       1.16455000      12.35356000      -0.75349700      -0.69143100       0.52852800
Zr      15.82949000       8.21765000      15.63305000       0.36307100       0.36869800       0.24382900
Zr      16.28589000      21.07278000      15.58062000       0.28105300       0.36116700       0.03489800
Zr      13.28513000      20.00358000      11.06250000       0.01463200      -0.01694000       0.05777400
Zr      16.78153000      15.14932000      16.45407000       0.02615400      -0.69048800      -0.60387100
Zr      14.50697000       5.40339000      14.96337000       0.11133400      -0.40284500       0.18971000
Zr      18.04066000       2.91277000      18.53704000      -0.41410400      -1.13683500       0.07575600
Zr      13.22818000      22.01087000      14.12330000      -0.50738000      -1.48007700      -0.45553700
Zr      14.11498000      15.58886000      14.21468000       0.02861500      -0.49254100       0.22760000
Zr      19.35173000      22.10072000      16.73761000      -0.54205600       0.24767500      -0.12959900
Zr      18.46642000      19.50413000      13.35422000      -0.75038900      -0.09662200      -0.49853700
O       11.80703000      22.29797000      15.69226000       0.85693100       1.27793700       0.27676800
O       12.00402000       1.51960000      10.69685000       0.57329500       0.14507400       0.14072400
O       15.20101000      16.09635000      15.74707000       0.24408300       0.14435700       0.34093000
O       18.20479000      21.63794000      14.94600000       0.46193500       0.08309900      -0.14442000
O       17.12188000      13.83453000      14.98275000       0.20218900       0.34565100       0.19789500
O       11.79085000      20.33196000      14.30744000       0.20136300       0.25966900       0.30590100
O       15.45379000       3.56599000      14.24258000      -0.04813100       0.22534300      -0.53105500
O       17.16017000      21.82645000      17.38408000       0.34178100       0.64460700       0.18536100
O       16.54277000      19.97836000      13.81568000      -0.53061000       0.01383500       0.13154800
O       11.72269000       0.09109000      18.31057000      -0.68162200       0.51702400      -0.59342000
O       12.33502000      22.00112000      12.28512000       0.53926200      -0.99807800      -0.84677000
O       17.43851000       7.33883000      16.42608000      -0.06964600      -0.33044500      -0.37532500
O       16.70653000      19.37786000      16.50360000       0.02035500      -0.40772500       0.14550800
O       14.85890000      18.90346000      10.69949000      -0.03970300      -0.37318100      -0.09979100
O       16.17674000       2.03637000      17.96148000       0.16641700      -0.06658000       0.69986400
O       12.87539000       1.46513000      13.73144000      -0.67772800       0.01867500      -0.35643200
O        9.83486000      18.94768000      13.63770000      -0.25255100      -0.86160400       0.14648000
O       19.21007000       1.29765000      17.77369000      -0.39435400       0.19541000       0.06846200
O       18.03132000       1.39986000      12.93199000      -0.43908900       0.49372500      -0.18584000
O       18.13754000      16.59385000      17.07859000      -0.41368800       0.00459200       0.07860800
O       17.50361000      18.29104000      12.16378000       0.89454200       0.01570000      -0.18419500
O        9.25583000      21.55376000      16.02176000      -1.30469900      -0.10402300       1.13688700
O       12.67173000       4.64502000      15.02090000       0.72730100       1.52244000       0.10676800
O       17.49885000       1.68369000      20.05774000       0.18518700      -0.08390000      -0.41070300
O       14.31851000      21.60448000      15.91879000       0.62660400      -0.63708400      -0.12800400
O       11.77744000      18.70494000      11.37417000       0.43033900       0.32298300       0.61740800
O       14.31206000      13.46066000      14.58848000      -0.66920900       0.86155800      -0.57224900
O       19.17467000      18.58886000      14.93717000      -0.02179400      -0.19894600       0.31638900
O       10.56844000       2.17974000      16.12426000      -2.10211900       0.94018500       1.95972900
O       15.26027000       7.08391000      14.10261000       0.11264400       0.21633500       0.46463500
O       17.50084000       4.81854000      18.95063000       0.06293600       0.10123300       0.01519600
O       16.16165000       1.04570000      15.17297000       0.07830400      -0.22737900      -0.25487000
O       14.06073000      21.57746000      10.12234000      -0.15551100       0.56708400      -0.49292500
O       15.12687000      16.55994000      12.88007000      -0.09095900      -0.15385900      -0.03339900
O       19.54134000      20.98426000      12.52602000      -0.05090400       0.07392100       0.04838600
O       10.61989000       2.66622000      13.47878000       0.07745800       1.04265700       0.18696300
O       17.45450000       3.70112000      16.60177000       0.91745100       0.73580900       0.08120000
O       14.90623000      22.48604000      12.94245000       0.44617600       0.32805000       0.47331800
O       14.58330000      22.49180000      18.87927000      -0.10601500      -0.24783100       0.61321500
O       12.54336000      16.82504000      14.11744000       0.22072300      -0.85629700       0.42102100
O       20.49715000       0.21907000      15.13661000       0.00810900       0.04875700       0.77309100
O        9.63270000      22.28291000      13.00969000       0.47733000      -0.29291000       0.19902200
O       14.93087000       6.67083000      16.73315000       0.12870300      -0.05019800      -0.46215300
O       15.19095000       2.12182000      11.43769000       0.14524800      -0.42065100       0.28819500
O       13.61145000       2.11708000      16.33304000       0.35840300      -0.74890500       1.14416400
O       13.85781000      19.68661000      13.01402000      -0.32996400      -0.26984800      -0.12203300
O       19.51482000      20.23434000      17.47258000      -0.05011700      -0.01820900      -0.30986700
Zr      15.70746000      12.46480000      15.47576000       0.52318400      -0.06341000       0.40729900
O       15.79570000      10.32601000      15.56159000      -0.15568800      -0.53749800      -0.02805000
O       15.86513000      13.49866000      17.16794000      -0.07323800       0.18086300       0.34604000
