74
Lattice="30.0 0.0 0.0 0.0 22.52911 0.0 0.0 0.0 30.0" Properties=species:S:1:pos:R:3:forces:R:3 energy=-673.19062052 pbc="T T T"
Zr      15.71415000       2.73022000      16.12276000      -1.19332200      -0.12154000      -0.49604000
Zr      13.81237000       0.65931000      11.18722000      -0.07058000       1.01453500      -0.51670600
Zr      13.41249000       0.26974000      17.34081000      -0.80134000       0.82964800      -0.56937200
Zr      11.80474000      18.51104000      13.37555000      -1.21111900       0.68665200      -0.72196200
Zr      19.35297000       0.11686000      13.55384000       0.32350900      -0.67973700       0.41344000
Zr      18.46537000      18.56612000      16.76404000       0.32657100       0.19020500      -0.22178400
Zr      11.93804000       2.84970000      15.02290000       1.38410700      -0.36221900      -2.40936000
Zr       9.79759000      20.78828000      14.31740000       0.99968300       0.38846400      -1.89030400
Zr      16.79872000       5.58802000      17.24246000      -0.53630300       0.77619800      -0.30607500
Zr      16.07169000       1.75400000      13.19310000      -0.58713000       0.13620500      -1.12217200
Zr      16.46623000       0.35521000      18.93884000       0.94905100      -0.27725000       0.29993400
Zr      15.54692000      18.46738000      12.46312000       0.90627900      -0.22953100       0.36949600
Zr      10.36339000       0.42860000      16.81152000       0.12378300      -1.81154100       1.50409700
Zr      11.02569000       1.16048000      12.35232000      -0.70065300      -0.37981500       0.62412200
Zr      15.82906000       8.21614000      15.63229000       0.37562900       0.32890800       0.25613000
Zr      16.28485000      21.07270000      15.57990000       0.30244000       0.38227500       0.06530000
Zr      13.28749000      20.00220000      11.06192000      -0.10440700       0.03282600       0.04049500
Zr      16.78147000      15.14947000      16.45456000       0.02512200      -0.67876700      -0.64414000
Zr      14.50674000       5.40239000      14.96155000       0.14080500      -0.38326000       0.19470800
Zr      18.04110000       2.91091000      18.53748000      -0.44261900      -1.06352500       0.09764400
Zr      13.22747000      22.01012000      14.12702000      -0.55207600      -1.42574900      -0.43224500
Zr      14.11357000      15.59054000      14.21511000      -0.07286800      -0.50049500       0.18963600
Zr      19.34978000      22.10130000      16.73646000      -0.52059700       0.19005200      -0.15453600
Zr      18.46472000      19.50674000      13.35563000      -0.68720300      -0.01380900      -0.48063200
O       11.80513000      22.30199000      15.69647000       0.94826000       1.17608300       0.11533000
O       12.00909000       1.52056000      10.69337000       0.48839900       0.12437000       0.21574300
O       15.19748000      16.09277000      15.74427000       0.33416800       0.16214700       0.44006200
O       18.20691000      21.63095000      14.94171000       0.46043100       0.11850900      -0.13050500
O       17.12402000      13.83413000      14.98188000       0.14889900       0.34249500       0.25534500
O       11.79236000      20.32969000      14.30730000       0.20848200       0.34616600       0.31336100
O       15.45334000       3.57052000      14.24080000      -0.02267900       0.14249600      -0.52731900
O       17.16208000      21.82613000      17.38135000       0.29605700       0.67906600       0.24547200
O       16.54135000      19.98337000      13.81960000      -0.55643500      -0.04808200       0.03709500
O       11.73185000       0.08493000      18.30005000      -0.86880500       0.51538700      -0.37731300
O       12.33785000      22.00523000      12.28293000       0.51091200      -1.04403300      -0.78132700
O       17.43886000       7.33663000      16.42816000      -0.05973000      -0.29349400      -0.40743100
O       16.70418000      19.37954000      16.50241000       0.03999400      -0.44496700       0.16865300
O       14.85802000      18.90439000      10.70460000       0.00830100      -0.41320000      -0.25239600
O       16.17891000       2.03282000      17.96137000       0.14792500      -0.05396800       0.67873400
O       12.87649000       1.46494000      13.73719000      -0.68336200      -0.02226400      -0.40271800
O        9.83458000      18.94411000      13.64057000      -0.25616300      -0.78075600       0.15941500
O       19.20510000       1.29107000      17.77365000      -0.39226800       0.27619800       0.11457900
O       18.03574000       1.40167000      12.93507000      -0.55475900       0.55642200      -0.22618800
O       18.14008000      16.59847000      17.07646000      -0.46704500      -0.09220300       0.08111600
O       17.50672000      18.29221000      12.16687000       0.82486200       0.01226100      -0.19688000
O        9.25715000      21.54527000      16.02483000      -1.23581900      -0.07627500       1.07234400
O       12.67297000       4.64605000      15.02122000       0.71702800       1.55756800       0.10123200
O       17.49863000       1.68445000      20.06007000       0.16118900      -0.12491400      -0.45113700
O       14.31871000      21.60549000      15.92381000       0.62569700      -0.67258700      -0.22603600
O       11.77387000      18.70467000      11.38122000       0.48954000       0.36012500       0.49996700
O       14.30648000      13.46584000      14.59655000      -0.59729500       0.79716800      -0.55796000
O       19.17273000      18.59155000      14.93807000      -0.00643300      -0.21091600       0.31855600
O       10.56641000       2.17074000      16.11656000      -2.08510200       1.07042600       1.93572100
O       15.26076000       7.08421000      14.10013000       0.10901500       0.21840500       0.48586800
O       17.49749000       4.82077000      18.95250000       0.08041200       0.02728800      -0.04331000
O       16.16377000       1.04708000      15.17425000       0.08565700      -0.24921700      -0.31914000
O       14.06006000      21.57708000      10.12059000      -0.16440200       0.54897600      -0.45061600
O       15.12898000      16.56020000      12.88310000      -0.09155300      -0.12417100      -0.06124600
O       19.54036000      20.98700000      12.52303000      -0.06677500       0.06415600       0.06180700
O       10.61921000       2.66914000      13.48794000       0.12632500       0.84789000      -0.01773600
O       17.45579000       3.69812000      16.60173000       0.93788800       0.72915900       0.09079100
O       14.90145000      22.49179000      12.94334000       0.50540000       0.29513300       0.48090800
O       14.57455000      22.49113000      18.87724000       0.16089700      -0.23788500       0.73510600
O       12.53845000      16.82956000      14.12061000       0.30912700      -0.96298700       0.44224800
O       20.49642000       0.22477000      15.13955000      -0.03084700       0.04045400       0.72101700
O        9.63717000      22.29090000      13.01224000       0.42728900      -0.34725300       0.17967100
O       14.93148000       6.66875000      16.73349000       0.13424200      -0.04290100      -0.48138000
O       15.18773000       2.12937000      11.43243000       0.18470000      -0.49570900       0.39955200
O       13.60913000       2.12162000      16.32940000       0.41682700      -0.76370600       1.17998300
O       13.86176000      19.68054000      13.01014000      -0.37212200      -0.20026400      -0.05753100
O       19.51192000      20.23636000      17.47620000      -0.04028600      -0.04205400      -0.31428600
Zr      15.70638000      12.46403000      15.47752000       0.49731700      -0.03255300       0.35675600
O       15.79763000      10.32110000      15.56357000      -0.16931800      -0.45948600      -0.03399100
O       15.86293000      13.49796000      17.16764000      -0.04711500       0.19925900       0.34310600
