74
Lattice="30.0 0.0 0.0 0.0 22.52911 0.0 0.0 0.0 30.0" Properties=species:S:1:pos:R:3:forces:R:3 energy=-672.9384066 pbc="T T T"
Zr      15.72720000       2.72622000      16.10531000      -0.69754700       0.22485100      -0.05663500
Zr      13.80046000       0.68525000      11.18983000       0.88002400       0.79210400      -1.19174100
Zr      13.40680000       0.26302000      17.34657000       1.06619500       1.26802100      -1.31358400
Zr      11.81371000      18.50629000      13.37651000      -1.22482100       0.02274600       0.83429000
Zr      19.34808000       0.14337000      13.54603000       0.86526800      -0.83005500       1.02495100
Zr      18.46400000      18.59309000      16.77264000       0.04180300       0.34778900      -0.03371300
Zr      11.99228000       2.86031000      15.01266000      -0.71763100      -0.10523300      -0.55966000
Zr       9.81497000      20.79151000      14.27448000       0.38574700      -0.52920300       0.65093000
Zr      16.82262000       5.58175000      17.19441000      -0.61048800       0.13750300       0.67964400
Zr      16.07081000       1.73580000      13.16089000      -0.57622900       1.16882700      -0.89477600
Zr      16.46145000       0.33480000      18.94291000       0.42787700      -0.42369600       0.49717500
Zr      15.54978000      18.48193000      12.46430000       1.97859300      -1.19084000       1.06597100
Zr      10.37492000       0.42649000      16.83159000      -1.66080800      -2.29467000       0.73033300
Zr      11.01035000       1.11453000      12.34390000       0.79193600       2.45949100       0.99953600
Zr      15.82729000       8.19860000      15.62532000       0.49864400      -0.10866100       0.40396800
Zr      16.27549000      21.07532000      15.57283000       0.95122500       0.40467300       0.62984700
Zr      13.31378000      19.98734000      11.05404000      -0.64074200       0.95449300      -0.42939400
Zr      16.78099000      15.14649000      16.45467000       0.13705100      -0.13348100      -0.55792000
Zr      14.50717000       5.38778000      14.94030000       1.28352900       0.29733800       0.14353500
Zr      18.04225000       2.88089000      18.54441000      -0.55232500      -0.02041600       0.24334800
Zr      13.21325000      21.99008000      14.17060000      -0.38687500      -0.81280900      -0.59570000
Zr      14.09291000      15.60708000      14.22177000      -0.41416900      -0.57883600       0.31280900
Zr      19.32132000      22.10862000      16.72047000      -0.26889500      -0.22705500       0.03089100
Zr      18.43948000      19.54187000      13.37047000       0.11781700       0.70894700       0.13347400
O       11.84023000      22.39295000      15.72747000       1.23205800       0.27611600      -1.16094900
O       12.07911000       1.53647000      10.67185000      -0.77477400       0.08008000       0.80365100
O       15.18166000      16.05857000      15.74383000       0.71791700       0.34819000       0.84772100
O       18.25321000      21.55360000      14.88400000       0.09201900       0.36594400       0.09604500
O       17.14859000      13.84100000      14.99033000      -0.43741500      -0.19281000       0.43665000
O       11.81908000      20.32982000      14.32073000      -0.17434900       0.72362000       0.19894000
O       15.44987000       3.61970000      14.19614000       0.09800100      -0.78049900      -0.13933900
O       17.19235000      21.85669000      17.36378000      -0.25263000       0.43925100       0.18249100
O       16.49396000      20.03288000      13.85332000      -0.52355500      -0.71860700      -0.98472200
O       11.77331000       0.02930000      18.18993000      -2.13887400       0.26529100       1.96807900
O       12.39043000      22.00153000      12.23120000      -0.15101600      -1.07159000       0.22178200
O       17.44390000       7.30207000      16.42928000       0.22911500       0.23603300      -0.68617300
O       16.67842000      19.37727000      16.49789000       0.09212200      -0.24865100       0.18507900
O       14.85459000      18.89057000      10.73301000       0.33707300      -0.59542800      -1.29042100
O       16.20729000       1.99210000      17.98138000      -0.39292700       0.53086600      -0.39115100
O       12.85619000       1.45423000      13.78202000      -0.66027000      -0.40124900      -0.88846500
O        9.82046000      18.87999000      13.68662000       0.03962100       0.56964400       0.20645200
O       19.12526000       1.23370000      17.78553000      -0.09827100       0.81245700       0.36903200
O       18.05307000       1.45652000      12.95785000      -0.60029900       0.34141100      -0.39308800
O       18.14211000      16.63759000      17.05419000      -0.73362100      -0.74758100       0.13102600
O       17.57097000      18.30671000      12.19381000      -0.23937300      -0.05431400      -0.33490300
O        9.23154000      21.43697000      16.09378000       0.22018900       0.17014000      -0.63190600
O       12.71066000       4.72403000      15.02888000      -0.65835600       0.04111800       0.00811300
O       17.50060000       1.68114000      20.06512000       0.00013700      -0.51486200      -0.30158100
O       14.34674000      21.58254000      15.96171000      -0.02996300      -0.55046400      -0.77278600
O       11.75838000      18.72317000      11.47041000       0.53596000       0.46828700      -1.10196600
O       14.22372000      13.55396000      14.67585000       0.53840100      -0.39020400      -0.23999000
O       19.15013000      18.61490000      14.96028000       0.11663500      -0.12674600      -0.22045700
O       10.45898000       2.13333000      16.09769000      -0.22424200       1.89813700       0.76317900
O       15.27137000       7.09891000      14.09283000       0.01642900       0.16383400       0.27850200
O       17.46133000       4.83985000      18.96427000       0.15744200      -0.44798600      -0.59817300
O       16.19498000       1.05041000      15.16720000       0.03517300      -0.24236500      -0.50928200
O       14.04182000      21.59314000      10.08459000      -0.24242800       0.07903400       0.09029800
O       15.15231000      16.56499000      12.91239000      -0.02500200       0.36612100      -0.39086300
O       19.52254000      21.02331000      12.49036000      -0.15459300       0.01148000       0.17222200
O       10.62416000       2.71891000      13.57214000       0.50986500      -0.61503600      -1.52892200
O       17.51392000       3.69060000      16.60471000       0.28208000       0.19458800      -0.11653100
O       14.87089000       0.04191000      12.97868000       0.49227700      -0.36055100       0.40292500
O       14.50773000      22.47262000      18.90246000       1.45634500      -0.08079300       0.93451400
O       12.49990000      16.83104000      14.18207000       0.38574300      -0.82572600       0.14249900
O       20.47902000       0.29731000      15.19899000      -0.37323300      -0.04639000      -0.25784400
O        9.70290000      22.36437000      13.04993000      -0.50631800      -1.04411500       0.01075900
O       14.94571000       6.64119000      16.71324000       0.07329800      -0.02533100      -0.37986100
O       15.16067000       2.19002000      11.39869000       0.34835000      -0.94883200       0.83556700
O       13.60768000       2.14170000      16.34324000       0.65972100      -0.65542000       1.05265100
O       13.88591000      19.60571000      12.96998000      -0.79895900       0.45844600       0.63602200
O       19.47557000      20.25668000      17.50629000       0.12700800      -0.13570000      -0.31939100
Zr      15.69567000      12.45580000      15.50146000      -0.07043700       0.75326400      -0.01524700
O       15.81145000      10.25425000      15.58596000      -0.28804400       0.78601300      -0.09093300
O       15.83628000      13.49781000      17.17729000       0.08798500      -0.09067600       0.01387300
