74
Lattice="30.0 0.0 0.0 0.0 22.52911 0.0 0.0 0.0 30.0" Properties=species:S:1:pos:R:3:forces:R:3 energy=-672.95457555 pbc="T T T"
Zr      15.72766000       2.72596000      16.10357000      -0.57887600       0.22853000      -0.01808300
Zr      13.79978000       0.68830000      11.18932000       0.95206800       0.70928300      -1.19693200
Zr      13.40664000       0.26333000      17.34610000       1.14217900       1.20109000      -1.17864400
Zr      11.81358000      18.50609000      13.37678000      -1.16858300      -0.06324900       0.97854300
Zr      19.34825000       0.14510000      13.54598000       0.81823600      -0.74199600       1.01725200
Zr      18.46398000      18.59585000      16.77333000       0.00750300       0.27683600      -0.00577300
Zr      11.99722000       2.86109000      15.01088000      -0.90736300      -0.06246100      -0.41634100
Zr       9.81700000      20.79166000      14.27042000       0.31185600      -0.61870500       0.86529600
Zr      16.82436000       5.58145000      17.19030000      -0.59510000       0.06230800       0.75268400
Zr      16.07027000       1.73475000      13.15720000      -0.54002500       1.24573700      -0.82584300
Zr      16.46137000       0.33265000      18.94355000       0.43731400      -0.40733200       0.53875800
Zr      15.55128000      18.48259000      12.46512000       2.00037300      -1.23227400       1.01997600
Zr      10.37513000       0.42457000      16.83426000      -1.74890600      -2.16257600       0.52251800
Zr      11.00912000       1.11159000      12.34384000       0.94894300       2.59665400       0.98338800
Zr      15.82745000       8.19700000      15.62494000       0.51131800      -0.10825700       0.41945400
Zr      16.27514000      21.07587000      15.57252000       1.02705200       0.37922000       0.65576900
Zr      13.31573000      19.98646000      11.05314000      -0.59543100       1.01482900      -0.47306400
Zr      16.78100000      15.14597000      16.45420000       0.15877100      -0.07838200      -0.49652200
Zr      14.50781000       5.38648000      14.93850000       1.40799400       0.37013200       0.12604600
Zr      18.04196000       2.87790000      18.54520000      -0.55306300       0.07047200       0.24032400
Zr      13.21157000      21.98755000      14.17425000      -0.31236000      -0.77053000      -0.67862100
Zr      14.09069000      15.60818000      14.22250000      -0.33166400      -0.57343500       0.37987100
Zr      19.31849000      22.10917000      16.71894000      -0.25490100      -0.21783600       0.09470400
Zr      18.43710000      19.54546000      13.37176000       0.16648800       0.72792100       0.18275900
O       11.84886000      22.40310000      15.72631000       1.12903600       0.27007000      -1.10427800
O       12.08396000       1.53816000      10.67270000      -0.87182500       0.09552300       0.80939500
O       15.18325000      16.05666000      15.74738000       0.65631500       0.36222400       0.78020400
O       18.25846000      21.54787000      14.87880000       0.03603500       0.36818800       0.12412200
O       17.14967000      13.84176000      14.99302000      -0.46275700      -0.26346000       0.39674600
O       11.82154000      20.33286000      14.32304000      -0.23666600       0.66947600       0.17272300
O       15.44994000       3.62203000      14.19086000       0.08532100      -0.82823800      -0.09045500
O       17.19474000      21.86197000      17.36349000      -0.28956400       0.36540200       0.11385200
O       16.48724000      20.03516000      13.85342000      -0.48696300      -0.74101200      -1.01384100
O       11.76872000       0.02564000      18.18564000      -2.01195700       0.25616600       2.01946100
O       12.39556000      21.99653000      12.22609000      -0.21111400      -1.02654200       0.29610500
O       17.44487000       7.29922000      16.42686000       0.25460900       0.27336100      -0.69500200
O       16.67648000      19.37542000      16.49838000       0.08763700      -0.18404900       0.16513600
O       14.85545000      18.88688000      10.73089000       0.32939300      -0.57270100      -1.24677900
O       16.20909000       1.98969000      17.98323000      -0.44633500       0.57764300      -0.48908700
O       12.85154000       1.45195000      13.78302000      -0.64343700      -0.40420100      -0.91671000
O        9.81875000      18.87476000      13.69172000       0.09035200       0.65948800       0.18829600
O       19.11702000       1.23150000      17.78807000      -0.04266600       0.79120800       0.34497000
O       18.05136000       1.46384000      12.95832000      -0.48292100       0.23608400      -0.37779500
O       18.13936000      16.63847000      17.05263000      -0.71292800      -0.72406400       0.13547800
O       17.57717000      18.30789000      12.19503000      -0.31082200      -0.05482400      -0.33641600
O        9.22803000      21.42736000      16.09978000       0.35597800       0.21890500      -0.75274900
O       12.71368000       4.73403000      15.02972000      -0.81069400      -0.15043200       0.00290500
O       17.50093000       1.67914000      20.06379000      -0.00749000      -0.53334800      -0.24187100
O       14.35037000      21.57766000      15.96214000      -0.12760700      -0.48598800      -0.73005500
O       11.75950000      18.72685000      11.47596000       0.48415900       0.44427600      -1.18734500
O       14.21702000      13.56194000      14.68172000       0.60526700      -0.47832000      -0.22900800
O       19.14843000      18.61629000      14.96232000       0.12158300      -0.10631700      -0.28079500
O       10.44546000       2.13775000      16.10047000      -0.04077500       1.76413800       0.72180100
O       15.27255000       7.10107000      14.09384000       0.00275900       0.14231700       0.22584900
O       17.45866000       4.84008000      18.96346000       0.15301400      -0.44747300      -0.61917000
O       16.19811000       1.04956000      15.16432000       0.02128600      -0.22084700      -0.46663000
O       14.03922000      21.59556000      10.08102000      -0.23931800       0.04804700       0.12445000
O       15.15429000      16.56637000      12.91376000      -0.03433900       0.38166800      -0.38963300
O       19.52032000      21.02669000      12.48797000      -0.14911300       0.01442700       0.17835700
O       10.62633000       2.72220000      13.57481000       0.52474600      -0.65588100      -1.55622200
O       17.52163000       3.69156000      16.60493000       0.18188000       0.13884700      -0.15204800
O       14.87055000       0.04863000      12.98380000       0.43609600      -0.43155400       0.36967400
O       14.50737000      22.47035000      18.90937000       1.36475400      -0.05790200       0.79864900
O       12.49845000      16.82677000      14.18896000       0.31680500      -0.70726200       0.07734100
O       20.47621000       0.30382000      15.20467000      -0.37805500      -0.05304300      -0.33746600
O        9.70816000      22.36766000      13.05355000      -0.59517800      -1.08835400       0.00273000
O       14.94746000       6.63860000      16.70953000       0.05979800      -0.03107400      -0.34662600
O       15.15960000       2.19194000      11.39903000       0.33790100      -0.93841400       0.79036000
O       13.61025000       2.14063000      16.34925000       0.63738500      -0.63842300       1.00517500
O       13.88527000      19.60012000      12.96818000      -0.80865400       0.47758500       0.66424200
O       19.47254000      20.25796000      17.50773000       0.14337400      -0.12207600      -0.31944000
Zr      15.69476000      12.45540000      15.50367000      -0.10581100       0.81458900      -0.01082100
O       15.81165000      10.24977000      15.58769000      -0.29350200       0.87374300      -0.09388700
O       15.83415000      13.49805000      17.17874000       0.08397800      -0.14189200      -0.01816700
