74
Lattice="30.0 0.0 0.0 0.0 22.52911 0.0 0.0 0.0 30.0" Properties=species:S:1:pos:R:3:forces:R:3 energy=-673.044647 pbc="T T T"
Zr      15.72910000       2.72513000      16.09635000      -0.06782400       0.18162900       0.10040600
Zr      13.79805000       0.70160000      11.18590000       1.13213800       0.26379800      -1.11958300
Zr      13.40726000       0.26585000      17.34309000       1.14103700       0.80660300      -0.42127000
Zr      11.81183000      18.50510000      13.37910000      -0.89767700      -0.33742000       1.36539400
Zr      19.34976000       0.15156000      13.54684000       0.54577000      -0.30764700       0.88940700
Zr      18.46387000      18.60753000      16.77622000      -0.13868700      -0.12444000       0.07159600
Zr      12.01656000       2.86433000      15.00318000      -1.60772200       0.06022000       0.03268200
Zr       9.82569000      20.79151000      14.25475000       0.01050600      -0.94250800       1.61407100
Zr      16.83092000       5.58021000      17.17414000      -0.49384400      -0.22987200       0.98655800
Zr      16.06749000       1.73183000      13.14111000      -0.34502200       1.49961400      -0.47051100
Zr      16.46151000       0.32331000      18.94684000       0.51219600      -0.25066500       0.68447600
Zr      15.55965000      18.48397000      12.46956000       1.92179600      -1.28607400       0.65464800
Zr      10.37403000       0.41443000      16.84568000      -1.98392100      -1.43909200      -0.44018800
Zr      11.00520000       1.10232000      12.34464000       1.48774900       2.94853800       0.91792200
Zr      15.82872000       8.19025000      15.62384000       0.56888700       0.01486200       0.48532300
Zr      16.27487000      21.07855000      15.57193000       1.29644400       0.24447400       0.65351300
Zr      13.32323000      19.98396000      11.04883000      -0.30447700       1.15601100      -0.61047800
Zr      16.78126000      15.14381000      16.45177000       0.25240500       0.09723200      -0.18496400
Zr      14.51209000       5.38154000      14.93112000       1.77322000       0.60813800       0.02941700
Zr      18.04018000       2.86567000      18.54873000      -0.57078900       0.42689400       0.19673100
Zr      13.20434000      21.97624000      14.18855000       0.07330500      -0.64145000      -1.13948700
Zr      14.08122000      15.61212000      14.22602000       0.14851100      -0.54109500       0.67349600
Zr      19.30647000      22.11125000      16.71274000      -0.21452000      -0.10683900       0.38876900
Zr      18.42744000      19.56113000      13.37735000       0.29498500       0.71809700       0.29253700
O       11.89078000      22.44690000      15.71536000       0.52555300       0.33112000      -0.55204200
O       12.09819000       1.54586000      10.68118000      -1.18008000       0.16653600       0.77051800
O       15.19340000      16.05105000      15.76639000       0.28353000       0.42365000       0.38727100
O       18.28011000      21.52632000      14.85821000      -0.21396300       0.35090700       0.26117000
O       17.15121000      13.84284000      15.00629000      -0.50463000      -0.54267600       0.16305400
O       11.82990000      20.34911000      14.33354000      -0.49204600       0.33425200       0.07046600
O       15.45066000       3.62637000      14.16869000      -0.00044100      -0.93622000       0.11004000
O       17.20266000      21.88562000      17.36251000      -0.40622700       0.02749200      -0.20792400
O       16.45665000      20.03998000      13.84754000      -0.28941600      -0.73243700      -0.97345200
O       11.73847000       0.01203000      18.18030000      -1.12941200       0.26669200       1.92927800
O       12.41521000      21.96981000      12.20711000      -0.39972800      -0.76803800       0.52938900
O       17.45060000       7.28924000      16.41248000       0.32991600       0.37480800      -0.69546900
O       16.66893000      19.36703000      16.50128000       0.07800400       0.09966100       0.07264900
O       14.86095000      18.86824000      10.71491000       0.24229500      -0.41461500      -0.84830000
O       16.21350000       1.98346000      17.98739000      -0.61631500       0.67168200      -0.76586400
O       12.82840000       1.44003000      13.78138000      -0.54301200      -0.35684100      -1.00255900
O        9.81257000      18.85757000      13.71389000       0.30610800       0.89248400       0.07445200
O       19.08295000       1.22702000      17.80050000       0.22132300       0.59493200       0.17212000
O       18.04209000       1.49495000      12.95803000       0.07378300      -0.22777900      -0.29825700
O       18.12378000      16.63793000      17.04700000      -0.56019400      -0.49844900       0.15436900
O       17.60060000      18.31245000      12.19806000      -0.51703800      -0.02955000      -0.30502200
O        9.21644000      21.38918000      16.11937000       0.84574000       0.45015700      -1.10270000
O       12.72045000       4.77348000      15.03321000      -1.25460200      -0.82372400      -0.01597400
O       17.50218000       1.66749000      20.05720000      -0.04067000      -0.57809400       0.02780400
O       14.36403000      21.55485000      15.95978000      -0.51069500      -0.19028700      -0.44998900
O       11.76677000      18.74466000      11.49129000       0.21810900       0.29364800      -1.32257800
O       14.19325000      13.59167000      14.70472000       0.77980000      -0.74581400      -0.22008600
O       19.14213000      18.62150000      14.96872000       0.13012100      -0.02282800      -0.46416300
O       10.39023000       2.16582000      16.11628000       0.65161300       0.96092300       0.66240500
O       15.27741000       7.11076000      14.09903000      -0.06082300       0.01277500      -0.01666700
O       17.44849000       4.83835000      18.95622000       0.12600100      -0.39126200      -0.64816600
O       16.21114000       1.04481000      15.14983000      -0.03786800      -0.11403700      -0.22320100
O       14.02702000      21.60575000      10.06719000      -0.19816300      -0.01493000       0.22596800
O       15.16220000      16.57445000      12.91713000      -0.11664800       0.35429400      -0.30631000
O       19.51023000      21.04078000      12.47920000      -0.11000200       0.02771100       0.20046500
O       10.63865000       2.73165000      13.57624000       0.55979600      -0.71441900      -1.52735700
O       17.55410000       3.69608000      16.60471000      -0.21555700      -0.05137100      -0.29393300
O       14.87146000       0.07341000      13.00704000       0.16889000      -0.70465000       0.18872900
O       14.51356000      22.46071000      18.94198000       0.82790800       0.03433700       0.14548000
O       12.49390000      16.80551000      14.21761000      -0.01662900      -0.17822600      -0.18680000
O       20.46222000       0.33051000      15.22576000      -0.35684000      -0.07789900      -0.59361900
O        9.72583000      22.37446000      13.06853000      -0.88876900      -1.15824500      -0.06100200
O       14.95496000       6.62762000      16.69224000       0.00325100      -0.06332500      -0.18817300
O       15.15714000       2.19424000      11.40494000       0.26720500      -0.80961900       0.48424800
O       13.62464000       2.13239000      16.38001000       0.51001500      -0.55209400       0.77344600
O       13.87765000      19.57990000      12.96491000      -0.77450700       0.47940200       0.69807000
O       19.46095000      20.26259000      17.51172000       0.20820000      -0.04179600      -0.31524500
Zr      15.69088000      12.45467000      15.51283000      -0.20683900       0.98966300       0.04327000
O       15.81066000      10.23700000      15.59427000      -0.30630000       1.11002800      -0.09971600
O       15.82581000      13.49786000      17.18448000       0.05649700      -0.33423700      -0.11323700
