74
Lattice="30.0 0.0 0.0 0.0 22.52911 0.0 0.0 0.0 30.0" Properties=species:S:1:pos:R:3:forces:R:3 energy=-673.04460362 pbc="T T T"
Zr      15.73136000       2.72433000      16.08552000       0.62592700      -0.05117500       0.16442000
Zr      13.79888000       0.72271000      11.17716000       0.87199400      -0.62888100      -0.79593100
Zr      13.41161000       0.27204000      17.33754000       0.59498400       0.08382800       0.77563600
Zr      11.80641000      18.50246000      13.38697000      -0.44442900      -0.43240400       1.19899100
Zr      19.35366000       0.16083000      13.55085000       0.08306900       0.36380900       0.49372700
Zr      18.46318000      18.62493000      16.78089000      -0.34608600      -0.85157200      -0.00426900
Zr      12.04109000       2.86951000      14.99145000      -2.44891100       0.01773500       0.35626600
Zr       9.83901000      20.78817000      14.23588000      -0.45068900      -1.21035400       2.34130900
Zr      16.83960000       5.57745000      17.15229000      -0.23884600      -0.54460800       1.08576000
Zr      16.06225000       1.73211000      13.11495000       0.10860300       1.57425800       0.27530500
Zr      16.46339000       0.30823000      18.95412000       0.58999300       0.17715400       0.69822300
Zr      15.57853000      18.48209000      12.47818000       1.38934900      -1.09330500      -0.22449500
Zr      10.36599000       0.39458000      16.86150000      -1.99403600      -0.27014200      -1.64583700
Zr      11.00396000       1.09730000      12.34881000       1.76868600       2.79768500       0.92791600
Zr      15.83252000       8.18005000      15.62370000       0.66270200       0.55095200       0.55340400
Zr      16.27861000      21.08339000      15.57299000       1.38241100       0.02871000       0.35313100
Zr      13.33407000      19.98374000      11.04023000       0.21090200       1.04400800      -0.60552600
Zr      16.78248000      15.14078000      16.44762000       0.31781400       0.12792700       0.31718600
Zr      14.52430000       5.37586000      14.91972000       1.57929600       0.70647400      -0.14731700
Zr      18.03555000       2.84827000      18.55476000      -0.71041100       0.87512900       0.05820600
Zr      13.19364000      21.95670000      14.20671000       0.75589600      -0.56816000      -2.06032100
Zr      14.06735000      15.61651000      14.23375000       1.00143700      -0.49198600       1.02537500
Zr      19.28719000      22.11423000      16.70455000      -0.17169300       0.17563300       0.78500400
Zr      18.41340000      19.58760000      13.38689000       0.29474600       0.47925900       0.14557700
O       11.96283000      22.52117000      15.69139000      -0.59965800       0.49289600       0.80163400
O       12.09869000       1.56095000      10.70786000      -1.22697400       0.22609400       0.54985400
O       15.21277000      16.05029000      15.80138000      -0.39966700       0.51931400      -0.29416100
O       18.30897000      21.49918000      14.83160000      -0.58750600       0.28929700       0.51584000
O       17.14467000      13.83409000      15.02886000      -0.39167800      -0.80459100      -0.27193300
O       11.83337000      20.37899000      14.35097000      -0.73998700      -0.30412800       0.01381000
O       15.45132000       3.61634000      14.13688000      -0.19924100      -0.83006000       0.36400500
O       17.20742000      21.92173000      17.35627000      -0.47353200      -0.45861100      -0.65013700
O       16.40492000      20.03476000      13.82181000       0.14389200      -0.44695900      -0.48473900
O       11.67448000      22.52515000      18.20550000       0.39704200       0.36402100       1.21139200
O       12.43828000      21.91563000      12.18753000      -0.46310300      -0.21586300       0.63682300
O       17.46541000       7.28051000      16.37780000       0.30403800       0.34739800      -0.58376700
O       16.65878000      19.35661000      16.50683000       0.12853100       0.46412100      -0.05095200
O       14.87337000      18.83266000      10.67684000       0.01468400      -0.03300200       0.11015800
O       16.20910000       1.98556000      17.98013000      -0.62583600       0.47644300      -0.69262000
O       12.78324000       1.41553000      13.76056000      -0.26952800      -0.16036500      -1.01501800
O        9.80910000      18.84692000      13.74903000       0.56517500       0.79251600      -0.18061700
O       19.03515000       1.22985000      17.82208000       0.66936400       0.11405000      -0.19710800
O       18.03060000       1.53779000      12.95239000       0.78999100      -0.80567300      -0.18324600
O       18.09027000      16.62930000      17.04119000      -0.18020800       0.07652700       0.19718700
O       17.62742000      18.31924000      12.19753000      -0.57976900       0.08903000      -0.14966600
O        9.21472000      21.33902000      16.12957000       1.27761000       0.81339700      -1.18701700
O       12.70859000       4.81862000      15.03821000      -1.07270200      -1.35192500      -0.06420300
O       17.50325000       1.63905000      20.04826000      -0.09641700      -0.51909600       0.39424300
O       14.37524000      21.51690000      15.94906000      -0.82223200       0.20119800       0.06394600
O       11.78100000      18.77687000      11.49199000      -0.24513000      -0.04273300      -0.90391400
O       14.17058000      13.62399000      14.73611000       0.79294200      -0.84952600      -0.30654300
O       19.13467000      18.62933000      14.97027000       0.10187400       0.06381400      -0.44410800
O       10.31819000       2.22393000      16.15279000       1.48037300      -0.36257600       0.60125000
O       15.28361000       7.12538000      14.10603000      -0.15827100      -0.27067600      -0.36440000
O       17.43492000       4.82896000      18.93350000       0.07725500      -0.20855400      -0.51955600
O       16.23049000       1.03577000      15.12430000      -0.10668400       0.06594600       0.22417100
O       14.00480000      21.62154000      10.04990000      -0.05975200       0.09743300       0.24895700
O       15.17184000      16.59273000      12.91747000      -0.33906600       0.04537900       0.00999200
O       19.49280000      21.06311000      12.46927000      -0.01670500       0.02315100       0.20895200
O       10.66777000       2.73378000      13.55154000       0.49335500      -0.49059200      -1.12714600
O       17.59955000       3.70187000      16.59873000      -0.67611900      -0.20598100      -0.43217300
O       14.87517000       0.09847000      13.04570000      -0.18523300      -0.94654400      -0.17728700
O       14.53641000      22.44659000      18.99335000      -0.00402500       0.12841900      -0.70189800
O       12.48557000      16.77075000      14.25795000      -0.48010400       0.50609000      -0.49401700
O       20.43434000       0.37033000      15.24739000      -0.23174600      -0.11747100      -0.71739000
O        9.73685000      22.36469000      13.09003000      -0.99390700      -0.81015900      -0.34405800
O       14.96651000       6.60935000      16.66255000      -0.06181100      -0.11717900       0.06642100
O       15.15786000       2.18396000      11.42133000       0.11049300      -0.39265900      -0.25978800
O       13.65576000       2.11011000      16.44082000       0.29847600      -0.27658600       0.32483500
O       13.85234000      19.55689000      12.97220000      -0.51540200       0.29984000       0.55285600
O       19.44695000      20.26932000      17.51221000       0.28367200       0.09983100      -0.29130500
Zr      15.68418000      12.45669000      15.52720000      -0.29206800       0.96608500       0.11462900
O       15.80358000      10.23720000      15.60266000      -0.29348800       1.03231800      -0.09159000
O       15.81385000      13.49127000      17.19135000       0.03330100      -0.43945900      -0.09810400
