74
Lattice="30.0 0.0 0.0 0.0 22.52911 0.0 0.0 0.0 30.0" Properties=species:S:1:pos:R:3:forces:R:3 energy=-673.02484595 pbc="T T T"
Zr      15.73189000       2.72421000      16.08379000       0.71506200      -0.09988100       0.16408000
Zr      13.79938000       0.72604000      11.17540000       0.75965000      -0.78068100      -0.73206800
Zr      13.41261000       0.27316000      17.33680000       0.48739300      -0.03013300       0.93674900
Zr      11.80531000      18.50187000      13.38874000      -0.37039400      -0.41363200       1.09758500
Zr      19.35438000       0.16243000      13.55173000       0.01499400       0.45616600       0.41648700
Zr      18.46296000      18.62755000      16.78167000      -0.37359400      -0.95830400      -0.04130700
Zr      12.04429000       2.87038000      14.98963000      -2.56024000      -0.01942000       0.37888600
Zr       9.84108000      20.78720000      14.23357000      -0.52534600      -1.21863100       2.40986800
Zr      16.84092000       5.57683000      17.14910000      -0.19118500      -0.57433800       1.06849300
Zr      16.06138000       1.73273000      13.11068000       0.19892300       1.54061000       0.41464500
Zr      16.46391000       0.30577000      18.95558000       0.58531900       0.25008600       0.66608100
Zr      15.58220000      18.48136000      12.47961000       1.26930400      -1.04306300      -0.37864800
Zr      10.36393000       0.39111000      16.86359000      -1.94531300      -0.10936200      -1.75866300
Zr      11.00440000       1.09754000      12.34983000       1.74039100       2.69246600       0.94350100
Zr      15.83338000       8.17851000      15.62387000       0.67399200       0.66325700       0.55184500
Zr      16.27974000      21.08421000      15.57333000       1.34190500       0.00343400       0.28385000
Zr      13.33588000      19.98410000      11.03858000       0.27679500       0.99254500      -0.57404900
Zr      16.78280000      15.14033000      16.44701000       0.30630400       0.10291300       0.38058400
Zr      14.52692000       5.37519000      14.91782000       1.45852600       0.69355300      -0.17512000
Zr      18.03455000       2.84569000      18.55579000      -0.74767500       0.92841900       0.02999600
Zr      13.19209000      21.95328000      14.20904000       0.84778000      -0.56557200      -2.20465800
Zr      14.06535000      15.61705000      14.23537000       1.11636600      -0.48293200       1.06235000
Zr      19.28396000      22.11475000      16.70345000      -0.16415000       0.22352200       0.82834200
Zr      18.41121000      19.59215000      13.38853000       0.27767300       0.42415500       0.08963100
O       11.97405000       0.00520000      15.68833000      -0.76205800       0.50783300       1.00898500
O       12.09615000       1.56388000      10.71354000      -1.17466400       0.22498300       0.49510100
O       15.21549000      16.05119000      15.80689000      -0.49092100       0.52839500      -0.38595300
O       18.31268000      21.49537000      14.82816000      -0.63896100       0.27956600       0.55653200
O       17.14269000      13.83108000      15.03224000      -0.35596400      -0.81335000      -0.33349300
O       11.83249000      20.38363000      14.35387000      -0.74611100      -0.39680500       0.02038800
O       15.45114000       3.61285000      14.13229000      -0.23377800      -0.78613500       0.39410800
O       17.20724000      21.92696000      17.35411000      -0.47426400      -0.51885100      -0.69804400
O       16.39646000      20.03276000      13.81623000       0.22519200      -0.37555700      -0.37092600
O       11.66399000      22.52322000      18.21264000       0.58020800       0.38434600       1.05925800
O       12.44110000      21.90595000      12.18563000      -0.44817400      -0.11888200       0.62800200
O       17.46852000       7.27985000      16.37080000       0.28269700       0.32354800      -0.55400300
O       16.65733000      19.35568000      16.50770000       0.14594000       0.50443300      -0.06456800
O       14.87558000      18.82651000      10.67025000      -0.02298100       0.03700900       0.26873400
O       16.20702000       1.98706000      17.97736000      -0.59100100       0.41217800      -0.62264000
O       12.77508000       1.41105000      13.75501000      -0.20756200      -0.12561900      -0.99856600
O        9.80958000      18.84696000      13.75458000       0.58827200       0.72433700      -0.22736800
O       19.02845000       1.23084000      17.82543000       0.73523700       0.03544800      -0.25363400
O       18.03001000       1.54344000      12.95102000       0.85905800      -0.86868200      -0.16761600
O       18.08416000      16.62770000      17.04062000      -0.11112700       0.17540000       0.20578600
O       17.63061000      18.32046000      12.19702000      -0.56515600       0.11398300      -0.11628700
O        9.21691000      21.33229000      16.12875000       1.30601300       0.86275700      -1.15303200
O       12.70414000       4.82343000      15.03893000      -0.94533700      -1.38515300      -0.07503600
O       17.50326000       1.63324000      20.04742000      -0.10308200      -0.49061100       0.43647100
O       14.37548000      21.51089000      15.94715000      -0.82430000       0.24661100       0.13609500
O       11.78309000      18.78227000      11.48989000      -0.31148900      -0.09950700      -0.79000500
O       14.16855000      13.62754000      14.74069000       0.77336100      -0.83393500      -0.32827100
O       19.13368000      18.63071000      14.96953000       0.09253200       0.07089100      -0.40500200
O       10.30902000       2.23343000      16.16009000       1.58050800      -0.53587900       0.57321500
O       15.28435000       7.12738000      14.10660000      -0.17019700      -0.31761000      -0.40503700
O       17.43288000       4.82687000      18.92858000       0.07227700      -0.17557100      -0.47864800
O       16.23348000       1.03432000      15.12032000      -0.11361400       0.09395700       0.28958300
O       14.00093000      21.62424000      10.04759000      -0.02956800       0.13256800       0.23961300
O       15.17285000      16.59605000      12.91734000      -0.37852600      -0.02845800       0.07298200
O       19.48985000      21.06683000      12.46808000      -0.00045400       0.01645900       0.20692100
O       10.67365000       2.73293000      13.54486000       0.46491900      -0.41489900      -1.02657500
O       17.60583000       3.70246000      16.59690000      -0.72752500      -0.21734400      -0.44118800
O       14.87557000       0.10071000      13.05190000      -0.22007200      -0.95320500      -0.23942100
O       14.54059000      22.44449000      19.00075000      -0.10455600       0.13608700      -0.79320000
O       12.48344000      16.76575000      14.26370000      -0.53014100       0.58122300      -0.52762000
O       20.42920000       0.37664000      15.24946000      -0.20477300      -0.12375200      -0.70390400
O        9.73658000      22.36111000      13.09304000      -0.97024100      -0.70431700      -0.41165400
O       14.96831000       6.60613000      16.65767000      -0.06731000      -0.12203900       0.10494900
O       15.15830000       2.18119000      11.42393000       0.08605900      -0.30801100      -0.39611300
O       13.66160000       2.10568000      16.45175000       0.27152000      -0.20484400       0.24288400
O       13.84694000      19.55387000      12.97465000      -0.45676100       0.26028400       0.51400000
O       19.44521000      20.27056000      17.51166000       0.29216500       0.11786400      -0.28398000
Zr      15.68298000      12.45739000      15.52960000      -0.30571100       0.92445400       0.11379000
O       15.80179000      10.23951000      15.60384000      -0.28721500       0.97024900      -0.08831200
O       15.81196000      13.48929000      17.19223000       0.03675000      -0.42389800      -0.07423900
