74
Lattice="30.0 0.0 0.0 0.0 22.52911 0.0 0.0 0.0 30.0" Properties=species:S:1:pos:R:3:forces:R:3 energy=-673.0035611 pbc="T T T"
Zr      15.73250000       2.72408000      16.08211000       0.79540000      -0.15048300       0.16112300
Zr      13.79996000       0.72925000      11.17358000       0.62950500      -0.92521100      -0.66896200
Zr      13.41364000       0.27426000      17.33616000       0.37890300      -0.14108300       1.08450500
Zr      11.80419000      18.50124000      13.39060000      -0.29854600      -0.38844700       0.98414000
Zr      19.35509000       0.16405000      13.55265000      -0.04886200       0.54056600       0.33899700
Zr      18.46271000      18.63004000      16.78244000      -0.39799200      -1.05518200      -0.08371600
Zr      12.04720000       2.87124000      14.98787000      -2.66423400      -0.06606800       0.39573600
Zr       9.84307000      20.78611000      14.23155000      -0.59930100      -1.21564700       2.46303100
Zr      16.84219000       5.57615000      17.14605000      -0.14370400      -0.59749300       1.04216200
Zr      16.06054000       1.73352000      13.10650000       0.29290600       1.49448200       0.55421600
Zr      16.46449000       0.30337000      18.95709000       0.57358600       0.31746900       0.62422700
Zr      15.58596000      18.48053000      12.48098000       1.14534500      -0.99213800      -0.52580900
Zr      10.36169000       0.38767000      16.86548000      -1.87860000       0.03814200      -1.83987500
Zr      11.00501000       1.09806000      12.35094000       1.69223600       2.56770300       0.96116700
Zr      15.83430000       8.17706000      15.62410000       0.68295000       0.77578100       0.54526600
Zr      16.28099000      21.08503000      15.57369000       1.28632500      -0.01691300       0.21257900
Zr      13.33770000      19.98457000      11.03690000       0.33131600       0.93410700      -0.53343400
Zr      16.78314000      15.13990000      16.44644000       0.28609500       0.07131500       0.43378900
Zr      14.52967000       5.37459000      14.91591000       1.32195800       0.67649100      -0.20136300
Zr      18.03348000       2.84324000      18.55680000      -0.78829700       0.97459500       0.00032300
Zr      13.19065000      21.94984000      14.21110000       0.92447500      -0.56400200      -2.33559200
Zr      14.06350000      15.61753000      14.23707000       1.21520600      -0.47085000       1.09209300
Zr      19.28074000      22.11529000      16.70246000      -0.15560500       0.26803300       0.86381500
Zr      18.40908000      19.59669000      13.39016000       0.25753600       0.36764100       0.02891800
O       11.98468000       0.01850000      15.68591000      -0.90583300       0.51292400       1.18886800
O       12.09294000       1.56691000      10.71945000      -1.10422000       0.21972500       0.43429500
O       15.21789000      16.05241000      15.81210000      -0.56850200       0.53297500      -0.46686600
O       18.31598000      21.49177000      14.82509000      -0.68575300       0.27128500       0.59373800
O       17.14052000      13.82762000      15.03539000      -0.31657400      -0.80992700      -0.38797600
O       11.83118000      20.38797000      14.35675000      -0.73912200      -0.47914300       0.03222400
O       15.45081000       3.60894000      14.12798000      -0.26709200      -0.73795000       0.41884100
O       17.20678000      21.93182000      17.35156000      -0.47217400      -0.57045400      -0.73501500
O       16.38824000      20.03057000      13.81050000       0.30579800      -0.30180000      -0.25543900
O       11.65397000      22.52154000      18.22034000       0.73410700       0.40454000       0.90270700
O       12.44362000      21.89631000      12.18412000      -0.42845800      -0.02361900       0.61347300
O       17.47176000       7.27939000      16.36356000       0.25607500       0.29575500      -0.52195900
O       16.65600000      19.35507000      16.50852000       0.16555800       0.53738700      -0.07558100
O       14.87775000      18.82046000      10.66390000      -0.05952800       0.10508200       0.41796500
O       16.20462000       1.98879000      17.97425000      -0.54649100       0.34361200      -0.53961900
O       12.76689000       1.40655000      13.74892000      -0.14114100      -0.09343200      -0.97486800
O        9.81041000      18.84744000      13.75993000       0.60371300       0.64286000      -0.27401400
O       19.02226000       1.23184000      17.82859000       0.79488300      -0.03703500      -0.30568000
O       18.02994000       1.54850000      12.94957000       0.90841400      -0.91972400      -0.15375100
O       18.07806000      16.62621000      17.04018000      -0.04295800       0.26783400       0.21413000
O       17.63342000      18.32174000      12.19646000      -0.54501900       0.13805600      -0.08394900
O        9.21987000      21.32614000      16.12724000       1.32087300       0.90772200      -1.10835500
O       12.69918000       4.82735000      15.03960000      -0.80000800      -1.40664500      -0.08672000
O       17.50320000       1.62720000      20.04686000      -0.10842800      -0.45559700       0.47175600
O       14.37522000      21.50510000      15.94534000      -0.81225500       0.28445800       0.20001000
O       11.78497000      18.78755000      11.48735000      -0.37145200      -0.15348200      -0.67310500
O       14.16699000      13.63054000      14.74502000       0.74877300      -0.81152700      -0.35064800
O       19.13276000      18.63211000      14.96855000       0.08253700       0.07602100      -0.35851000
O       10.30091000       2.24249000      16.16766000       1.67026300      -0.68975800       0.53832100
O       15.28498000       7.12917000      14.10693000      -0.18015400      -0.36115800      -0.43775800
O       17.43090000       4.82470000      18.92344000       0.06783600      -0.14508000      -0.43365400
O       16.23636000       1.03295000      15.11656000      -0.11867100       0.12032000       0.34732600
O       13.99709000      21.62698000      10.04545000       0.00066000       0.17003300       0.22620200
O       15.17362000      16.59930000      12.91726000      -0.41596900      -0.10443300       0.13491400
O       19.48693000      21.07053000      12.46702000       0.01518200       0.00742500       0.20448000
O       10.67973000       2.73183000      13.53763000       0.43062500      -0.32842800      -0.91897300
O       17.61161000       3.70291000      16.59484000      -0.77269800      -0.22568100      -0.44463900
O       14.87584000       0.10235000      13.05788000      -0.24581800      -0.94740400      -0.30056500
O       14.54466000      22.44250000      19.00759000      -0.18836700       0.14262200      -0.86842100
O       12.48101000      16.76116000      14.26906000      -0.56821000       0.64248900      -0.55575100
O       20.42399000       0.38281000      15.25109000      -0.17656000      -0.12997400      -0.68135700
O        9.73574000      22.35716000      13.09577000      -0.93827900      -0.59034400      -0.48136600
O       14.97005000       6.60288000      16.65291000      -0.07082900      -0.12464100       0.14127700
O       15.15879000       2.17826000      11.42627000       0.06381100      -0.22160900      -0.53022500
O       13.66754000       2.10118000      16.46271000       0.24838100      -0.12525300       0.15880100
O       13.84132000      19.55103000      12.97739000      -0.39589600       0.22086100       0.47198300
O       19.44366000      20.27185000      17.51095000       0.29884300       0.13254000      -0.27582300
Zr      15.68176000      12.45818000      15.53198000      -0.32065300       0.87229800       0.10819000
O       15.79985000      10.24237000      15.60495000      -0.28004100       0.89820000      -0.08452700
O       15.81012000      13.48708000      17.19306000       0.04319900      -0.39770000      -0.04459900
