74
Lattice="30.0 0.0 0.0 0.0 22.52911 0.0 0.0 0.0 30.0" Properties=species:S:1:pos:R:3:forces:R:3 energy=-672.98255695 pbc="T T T"
Zr      15.73318000       2.72393000      16.08046000       0.86467100      -0.20017100       0.15629100
Zr      13.80059000       0.73231000      11.17171000       0.48420400      -1.06353700      -0.60612400
Zr      13.41470000       0.27534000      17.33565000       0.27292000      -0.24731200       1.21856800
Zr      11.80305000      18.50058000      13.39254000      -0.22847700      -0.35808500       0.86194600
Zr      19.35578000       0.16570000      13.55359000      -0.10813800       0.61545100       0.26192900
Zr      18.46241000      18.63238000      16.78318000      -0.41989300      -1.14222000      -0.13035700
Zr      12.04978000       2.87208000      14.98618000      -2.75891400      -0.11860500       0.40771700
Zr       9.84497000      20.78491000      14.22981000      -0.67102000      -1.20094400       2.49868800
Zr      16.84343000       5.57541000      17.14316000      -0.09691700      -0.61416700       1.00755700
Zr      16.05974000       1.73444000      13.10243000       0.38863000       1.43488200       0.69215800
Zr      16.46512000       0.30103000      18.95865000       0.55488000       0.37770000       0.57322400
Zr      15.58979000      18.47960000      12.48227000       1.01882200      -0.94186400      -0.66658400
Zr      10.35928000       0.38428000      16.86715000      -1.79554500       0.17047300      -1.89085700
Zr      11.00579000       1.09883000      12.35213000       1.62454600       2.42381700       0.97873300
Zr      15.83528000       8.17572000      15.62439000       0.68912400       0.88650100       0.53234400
Zr      16.28236000      21.08583000      15.57407000       1.21480900      -0.03229000       0.14101400
Zr      13.33953000      19.98512000      11.03518000       0.37321400       0.87056300      -0.48453900
Zr      16.78351000      15.13948000      16.44592000       0.25657200       0.03371400       0.47537400
Zr      14.53252000       5.37408000      14.91402000       1.17201000       0.65383500      -0.22645200
Zr      18.03234000       2.84092000      18.55781000      -0.83132300       1.01138300      -0.02979600
Zr      13.18933000      21.94639000      14.21289000       0.98387200      -0.55992900      -2.45071500
Zr      14.06180000      15.61795000      14.23887000       1.29711500      -0.45620900       1.11561200
Zr      19.27756000      22.11586000      16.70157000      -0.14551700       0.30961700       0.89037800
Zr      18.40700000      19.60121000      13.39178000       0.23770600       0.31083900      -0.03592900
O       11.99462000       0.03192000      15.68424000      -1.03184700       0.50881300       1.34286500
O       12.08911000       1.57004000      10.72554000      -1.01793500       0.21121200       0.36727300
O       15.21991000      16.05392000      15.81696000      -0.63129900       0.53177400      -0.53591100
O       18.31881000      21.48837000      14.82242000      -0.72688100       0.26474400       0.62787900
O       17.13818000      13.82372000      15.03826000      -0.27438600      -0.79389700      -0.43397900
O       11.82944000      20.39196000      14.35961000      -0.71883500      -0.55104200       0.04750900
O       15.45033000       3.60464000      14.12399000      -0.29866300      -0.68595100       0.43925400
O       17.20603000      21.93627000      17.34861000      -0.46728500      -0.61287500      -0.75986200
O       16.38030000      20.02822000      13.80469000       0.38603800      -0.22588200      -0.13777700
O       11.64453000      22.52012000      18.22847000       0.85996900       0.42605600       0.74234600
O       12.44585000      21.88679000      12.18300000      -0.40291400       0.06836300       0.59263000
O       17.47511000       7.27911000      16.35609000       0.22547800       0.26423700      -0.48724800
O       16.65477000      19.35478000      16.50928000       0.18665900       0.56215800      -0.08388300
O       14.87985000      18.81455000      10.65788000      -0.09362300       0.17195100       0.55740800
O       16.20192000       1.99071000      17.97086000      -0.49267600       0.27136900      -0.44527800
O       12.75872000       1.40205000      13.74233000      -0.06967200      -0.06429500      -0.94348200
O        9.81160000      18.84829000      13.76504000       0.61109000       0.55013500      -0.31966600
O       19.01663000       1.23280000      17.83152000       0.84757500      -0.10283500      -0.35212500
O       18.03041000       1.55294000      12.94804000       0.93894700      -0.95915100      -0.14099500
O       18.07200000      16.62491000      17.03987000       0.02374700       0.35447200       0.22277700
O       17.63587000      18.32308000      12.19585000      -0.52021400       0.16063000      -0.05222800
O        9.22357000      21.32062000      16.12509000       1.32249700       0.94782400      -1.05261200
O       12.69381000       4.83038000      15.04020000      -0.64229000      -1.41470300      -0.09883200
O       17.50308000       1.62097000      20.04658000      -0.11172900      -0.41493000       0.49943000
O       14.37447000      21.49955000      15.94367000      -0.78690600       0.31528600       0.25642800
O       11.78659000      18.79266000      11.48443000      -0.42326700      -0.20366100      -0.55578000
O       14.16591000      13.63302000      14.74908000       0.71983600      -0.78189300      -0.37442100
O       19.13190000      18.63354000      14.96738000       0.07179600       0.07875400      -0.30537600
O       10.29390000       2.25103000      16.17544000       1.74559600      -0.82322700       0.49893700
O       15.28549000       7.13072000      14.10698000      -0.18764100      -0.40087100      -0.46175200
O       17.42900000       4.82247000      18.91810000       0.06468200      -0.11579700      -0.38502200
O       16.23914000       1.03166000      15.11306000      -0.12220400       0.14523700       0.39842800
O       13.99331000      21.62979000      10.04347000       0.03113700       0.20809300       0.20977900
O       15.17414000      16.60246000      12.91726000      -0.45116100      -0.18158400       0.19562800
O       19.48406000      21.07417000      12.46610000       0.02977100      -0.00330400       0.20172700
O       10.68600000       2.73055000      13.52995000       0.39059000      -0.23033700      -0.80435800
O       17.61685000       3.70322000      16.59253000      -0.81046400      -0.23182200      -0.44355400
O       14.87595000       0.10340000      13.06360000      -0.26226300      -0.93057400      -0.35919300
O       14.54857000      22.44063000      19.01381000      -0.25703400       0.14731800      -0.92782600
O       12.47828000      16.75702000      14.27402000      -0.59328200       0.68971900      -0.57902500
O       20.41875000       0.38882000      15.25229000      -0.14694500      -0.13710900      -0.65132000
O        9.73434000      22.35290000      13.09818000      -0.89839100      -0.47105100      -0.55212700
O       14.97172000       6.59959000      16.64830000      -0.07213400      -0.12519400       0.17481500
O       15.15931000       2.17524000      11.42827000       0.04554200      -0.13579600      -0.65900700
O       13.67355000       2.09666000      16.47361000       0.22847500      -0.03860000       0.07468300
O       13.83554000      19.54836000      12.98038000      -0.33433800       0.18124800       0.42844200
O       19.44231000      20.27321000      17.51009000       0.30379900       0.14416100      -0.26678300
Zr      15.68053000      12.45904000      15.53434000      -0.33695600       0.81074000       0.09654700
O       15.79777000      10.24573000      15.60600000      -0.27135500       0.81575100      -0.08034900
O       15.80833000      13.48465000      17.19386000       0.05275100      -0.36096700      -0.01025600
