74
Lattice="30.0 0.0 0.0 0.0 22.52911 0.0 0.0 0.0 30.0" Properties=species:S:1:pos:R:3:forces:R:3 energy=-673.25165868 pbc="T T T"
Zr      15.75843000       2.71529000      16.05736000       0.59679500      -0.67385300       0.17862500
Zr      13.80372000       0.75572000      11.13918000      -1.71699000      -1.38800100       0.41907700
Zr      13.42686000       0.28157000      17.35305000      -1.11163100      -0.73866800       1.73439200
Zr      11.78737000      18.48792000      13.42481000       0.74935400       0.04845200      -0.94854000
Zr      19.36169000       0.20218000      13.56674000      -0.33126900       0.28436800      -0.38712100
Zr      18.45110000      18.64763000      16.78843000      -0.23636900      -1.02294700      -0.71164000
Zr      12.04209000       2.87616000      14.96724000      -3.04111300      -1.66466200       0.60183600
Zr       9.85845000      20.75360000      14.23694000      -1.34144400       0.07569900       0.24343100
Zr      16.86353000       5.55562000      17.10909000       0.19169700      -0.24332200      -0.32332900
Zr      16.05947000       1.76286000      13.05882000       0.86744900      -0.11423800       1.13897600
Zr      16.47960000       0.27288000      18.98428000      -0.17282900       0.24669800      -0.81027300
Zr      15.65320000      18.45393000      12.48455000      -0.81954100      -0.64867400      -1.03749300
Zr      10.30759000       0.34368000      16.86868000       1.12317900       1.81216500       0.12307100
Zr      11.03179000       1.13174000      12.38514000      -0.78223800      -0.53521400       0.53852200
Zr      15.85973000       8.17473000      15.63345000       0.27805100       1.30397200      -0.40070800
Zr      16.31201000      21.09793000      15.57697000      -0.97393800       0.18676900      -0.67927100
Zr      13.37107000      20.00073000      11.00809000      -0.71727300      -0.18146300       0.94055000
Zr      16.78787000      15.13038000      16.44483000      -0.81727600      -0.35060200       0.03235600
Zr      14.58125000       5.37367000      14.88047000      -0.82719300       0.05272200      -0.29928100
Zr      17.99917000       2.82045000      18.57002000      -1.19860100       0.29607900      -0.44692300
Zr      13.18226000      21.88744000      14.20083000       0.10878700       0.03548200      -1.77624100
Zr      14.05554000      15.61965000      14.28323000       0.29415200       0.04969800       0.86859700
Zr      19.22821000      22.13093000      16.70104000       0.14663100       0.35930900       0.47965200
Zr      18.37791000      19.67073000      13.41098000       0.25008000      -0.21702200      -0.53744900
O       12.04243000       0.25717000      15.77200000      -0.51237300      -0.69782500      -0.42795700
O       12.00231000       1.62868000      10.80745000       0.87836400      -0.11438900      -0.99672900
O       15.20133000      16.10986000      15.83803000       0.28684600      -0.16169700      -0.11622800
O       18.29473000      21.46228000      14.83952000      -0.32867000       0.48822000       0.22551300
O       17.10188000      13.72748000      15.04173000       0.42105300       0.61502200      -0.07187500
O       11.77566000      20.39716000      14.41951000       0.65951500      -0.24550500       0.45060200
O       15.40819000       3.50674000      14.10022000      -0.38041900       0.18071500       0.13609500
O       17.16045000      21.95147000      17.25429000      -0.08810100      -0.05438700       0.53432700
O       16.32196000      20.00323000      13.74785000       0.88299100       0.36816300       0.68046000
O       11.58863000       0.01331000      18.34654000       0.63520200       0.43495300      -1.12811400
O       12.46077000      21.77677000      12.20094000       0.07356500       0.56583400      -0.12163900
O       17.52692000       7.28232000      16.21817000      -0.37656600      -0.17621500       0.12131100
O       16.66214000      19.39473000      16.51522000       0.35042500       0.03520400       0.08631300
O       14.89625000      18.76297000      10.65270000      -0.08479200       0.63615400       0.97180500
O       16.15622000       2.01199000      17.93573000       0.83377500      -0.49467800       1.17225000
O       12.67056000       1.33286000      13.59600000       1.30949000       0.00380300       0.74736000
O        9.86837000      18.85705000      13.79995000      -0.35534900      -0.81533900      -0.49450000
O       19.01125000       1.23025000      17.84140000       0.53783000       0.22767000      -0.00533400
O       18.09664000       1.54224000      12.91512000      -0.53944000      -0.15710200      -0.18016000
O       18.00123000      16.65394000      17.05626000       0.23675700       0.19020600       0.16958700
O       17.64405000      18.36167000      12.19063000       0.03241400       0.05172500      -0.02232700
O        9.36912000      21.32335000      16.04394000      -0.24563400       0.46085900       0.55020900
O       12.63095000       4.76843000      15.03651000       1.40191400      -0.39147900      -0.16007000
O       17.49523000       1.51805000      20.08464000       0.12240500       0.57283900       0.15039900
O       14.32237000      21.44816000      15.95032000       0.16732100       0.38627800       0.18193800
O       11.77227000      18.84308000      11.43213000       0.08543900      -0.12824500       0.28624300
O       14.19420000      13.62376000      14.76786000       0.08295800      -0.07961100      -0.60239700
O       19.12011000      18.65987000      14.94993000      -0.07521200      -0.01859700       0.31005100
O       10.34926000       2.28450000      16.31022000       1.33186900      -0.67024700      -0.49997400
O       15.27952000       7.11380000      14.07589000       0.04651400      -0.17470200       0.19590500
O       17.40760000       4.78557000      18.83288000       0.18781100      -0.02904700       0.61953400
O       16.27142000       1.03278000      15.09918000      -0.01611700       0.24692600       0.02674700
O       13.95188000      21.69846000      10.02033000       0.35695600      -0.08049800      -0.23426300
O       15.13629000      16.60830000      12.95172000      -0.25121600      -0.45574300       0.28085100
O       19.44801000      21.12115000      12.46770000       0.14101300      -0.27776900       0.13263700
O       10.78872000       2.75270000      13.40390000      -0.49344100       1.59912200       1.00200000
O       17.62374000       3.68834000      16.52861000      -0.48184300      -0.13051400       0.09381400
O       14.86574000       0.06513000      13.09799000       0.39632700       0.21790900      -0.82733800
O       14.58234000      22.42520000      19.02624000       0.08760500       0.07555700      -0.42161400
O       12.39844000      16.74876000      14.29622000       0.29898500      -0.01860400      -0.44723300
O       20.34081000       0.46568000      15.23924000       0.32600600      -0.17622800       0.30410800
O        9.66090000      22.29091000      13.06673000       0.08868600       0.25730700      -0.53423000
O       14.99443000       6.54574000      16.60376000       0.14491000       0.28493000       0.36001900
O       15.17555000       2.14630000      11.37105000       0.49862200       0.26541100      -0.55407000
O       13.78255000       2.06904000      16.61096000       0.19135400       0.96931900      -0.76149500
O       13.74811000      19.51209000      13.04152000       0.64066900       0.03773000      -0.28597800
O       19.44749000      20.30429000      17.47973000       0.19269900      -0.07469700      -0.02550700
Zr      15.65479000      12.47712000      15.56932000      -0.64758800      -0.68348200      -0.29486100
O       15.74863000      10.32033000      15.61762000      -0.02680600      -0.69325500       0.01331500
O       15.79548000      13.44923000      17.22560000       0.45023900       0.85251700       0.46161500
