74
Lattice="30.0 0.0 0.0 0.0 22.52911 0.0 0.0 0.0 30.0" Properties=species:S:1:pos:R:3:forces:R:3 energy=-673.32073926 pbc="T T T"
Zr      15.76301000       2.71309000      16.05500000       0.43540900      -0.67052900       0.23931000
Zr      13.80142000       0.75508000      11.13573000      -1.67099000      -1.15157000       0.53704500
Zr      13.42663000       0.28056000      17.35874000      -1.16846500      -0.55218100       1.56613900
Zr      11.78656000      18.48646000      13.42742000       0.86079800       0.04530300      -1.07049300
Zr      19.36159000       0.20751000      13.56758000      -0.25984300       0.09814600      -0.34924900
Zr      18.44907000      18.64681000      16.78775000      -0.14399100      -0.87891600      -0.68283900
Zr      12.03478000       2.87421000      14.96613000      -2.86154300      -1.80675000       0.66870500
Zr       9.85741000      20.74941000      14.24032000      -1.27961400       0.13796900      -0.23443700
Zr      16.86618000       5.55255000      17.10544000       0.16545400      -0.16935400      -0.45568200
Zr      16.06137000       1.76672000      13.05660000       0.73357100      -0.23545700       0.93595600
Zr      16.48128000       0.27050000      18.98631000      -0.17684300       0.19007900      -0.87956500
Zr      15.65964000      18.44969000      12.48225000      -0.93461800      -0.65999600      -0.78734300
Zr      10.30209000       0.34177000      16.86739000       1.48124700       2.04824000       0.50452500
Zr      11.03463000       1.13584000      12.39050000      -0.96021100      -0.58087400       0.39311500
Zr      15.86344000       8.17749000      15.63433000       0.18431500       1.16534200      -0.52119100
Zr      16.31477000      21.09949000      15.57628000      -1.22426500       0.21945500      -0.71346700
Zr      13.37421000      20.00260000      11.00604000      -0.94332300      -0.19976200       1.08867100
Zr      16.78730000      15.12866000      16.44518000      -0.85513500      -0.30190900      -0.01591400
Zr      14.58593000       5.37414000      14.87599000      -0.90564600      -0.04596100      -0.24924800
Zr      17.99300000       2.81947000      18.57066000      -1.13726300       0.13188900      -0.43110400
Zr      13.18236000      21.88039000      14.19491000       0.07461600       0.10688300      -1.54655500
Zr      14.05653000      15.61963000      14.29030000       0.03613900       0.07868800       0.79684300
Zr      19.22273000      22.13352000      16.70234000       0.19014900       0.30154600       0.41422200
Zr      18.37496000      19.67833000      13.41206000       0.32662300      -0.24113700      -0.45679600
O       12.03719000       0.27977000      15.78774000      -0.30933100      -0.87278800      -0.81337500
O       11.99764000       1.63538000      10.80879000       0.88630800      -0.18914000      -0.96364700
O       15.19739000      16.11721000      15.83568000       0.45598400      -0.23956700       0.02999900
O       18.28503000      21.46379000      14.84718000      -0.15596900       0.53666100       0.06028300
O       17.10088000      13.71844000      15.03871000       0.41723600       0.72827800       0.03565100
O       11.77270000      20.39217000      14.43041000       0.68506200      -0.14052100       0.45131100
O       15.39848000       3.49522000      14.10091000      -0.32771200       0.24205000       0.06633000
O       17.15243000      21.94904000      17.24324000      -0.00197900       0.09081200       0.78369400
O       16.32576000      20.00445000      13.74912000       0.79119700       0.29293600       0.57951300
O       11.59223000       0.02169000      18.35081000       0.53829400       0.36681100      -1.13547100
O       12.46220000      21.77091000      12.20435000       0.06454300       0.51458200      -0.22411500
O       17.53011000       7.28169000      16.20200000      -0.39535500      -0.18971500       0.18016400
O       16.66721000      19.40253000      16.51599000       0.29588800      -0.06912000       0.11542200
O       14.89620000      18.76418000      10.66511000      -0.02964800       0.59703800       0.78997200
O       16.15662000       2.00992000      17.94148000       0.89368100      -0.46317200       1.15199300
O       12.67181000       1.32497000      13.58124000       1.31415200       0.04665400       0.93654300
O        9.87539000      18.85105000      13.79748000      -0.53443400      -0.73109900      -0.41515100
O       19.01961000       1.22954000      17.83976000       0.41623500       0.35285800       0.10645000
O       18.10478000       1.53454000      12.90989000      -0.76346600       0.04068100      -0.21574500
O       17.99680000      16.66267000      17.06065000       0.16515100       0.00122200       0.14050600
O       17.64367000      18.36789000      12.19062000       0.06844200      -0.01567400      -0.08124200
O        9.39013000      21.33288000      16.03584000      -0.54052400       0.22438800       0.63778000
O       12.63545000       4.75186000      15.03411000       1.44748500      -0.18694900      -0.14022900
O       17.49469000       1.50989000      20.09280000       0.15149300       0.63026200       0.06163800
O       14.31556000      21.44687000      15.95474000       0.21340200       0.38664300       0.09924700
O       11.76809000      18.84574000      11.42865000       0.22787600      -0.05326900       0.26398800
O       14.20043000      13.61976000      14.76325000       0.03050700      -0.05004800      -0.58067500
O       19.11828000      18.66296000      14.95086000      -0.08080600      -0.01872000       0.24867500
O       10.37491000       2.27667000      16.32311000       1.10383500      -0.42738700      -0.59356600
O       15.27816000       7.10768000      14.07142000       0.09379600      -0.05352300       0.29047900
O       17.40680000       4.78123000      18.82731000       0.19648900      -0.02746200       0.67352200
O       16.27427000       1.03610000      15.10086000       0.01519100       0.19197300      -0.10720700
O       13.95078000      21.70830000      10.01657000       0.34540100      -0.25757900      -0.27646700
O       15.12693000      16.60224000      12.96049000      -0.12273200      -0.31578000       0.14729800
O       19.44538000      21.12405000      12.46963000       0.14687500      -0.27800700       0.12845700
O       10.79724000       2.76955000      13.39676000      -0.53138700       1.49605200       0.99277200
O       17.61651000       3.68453000      16.52006000      -0.35698000      -0.09644300       0.18494100
O       14.86628000       0.05907000      13.09289000       0.46797500       0.32120000      -0.80521700
O       14.58484000      22.42486000      19.01936000       0.13843000       0.04058800      -0.27663300
O       12.38871000      16.75150000      14.29237000       0.42521000      -0.15602500      -0.38740900
O       20.33436000       0.47232000      15.23809000       0.35265000      -0.17387400       0.36796900
O        9.65009000      22.28727000      13.05439000       0.21778300       0.16294500      -0.36679300
O       14.99770000       6.54106000      16.60285000       0.17888200       0.35272200       0.34361900
O       15.18084000       2.14696000      11.35387000       0.54473600       0.14074700      -0.31255800
O       13.79729000       2.07613000      16.61903000       0.14411000       0.83770400      -0.72475600
O       13.74263000      19.50799000      13.04734000       0.71825500       0.08465700      -0.34315400
O       19.45095000      20.30810000      17.47510000       0.16282600      -0.11073300       0.00179900
Zr      15.65067000      12.47859000      15.57283000      -0.61185700      -0.75892500      -0.26507000
O       15.74186000      10.32497000      15.61880000       0.00125000      -0.75201100       0.02025100
O       15.79784000      13.45116000      17.23414000       0.47771900       0.91514300       0.37513000
