74
Lattice="30.0 0.0 0.0 0.0 22.52911 0.0 0.0 0.0 30.0" Properties=species:S:1:pos:R:3:forces:R:3 energy=-673.45449633 pbc="T T T"
Zr      15.79270000       2.69389000      16.04351000      -0.60961600      -0.37442400       0.52537300
Zr      13.77524000       0.74468000      11.12033000       0.10758300       0.20149000       0.69824300
Zr      13.41503000       0.27291000      17.40442000      -0.53687200       0.88666200      -0.18748900
Zr      11.79062000      18.47770000      13.43283000       1.13326100       0.06480600      -1.29245300
Zr      19.35965000       0.23912000      13.57063000      -0.00849900      -0.48996200       0.05075000
Zr      18.43686000      18.63584000      16.77845000       0.55557000      -0.21351100      -0.13278000
Zr      11.96819000       2.84531000      14.96640000      -0.43535100      -1.40950300       0.94583500
Zr       9.84129000      20.72423000      14.25355000      -0.38856000      -0.19008800      -1.85225400
Zr      16.88361000       5.53295000      17.07775000      -0.03543200       0.21119100      -0.52911400
Zr      16.07741000       1.78746000      13.04789000      -0.24378200      -0.50446900      -0.34777900
Zr      16.49122000       0.25694000      18.99158000       0.51313800       0.05267300      -0.14472300
Zr      15.69045000      18.41736000      12.46561000      -0.91487200      -0.61154400       1.11586800
Zr      10.28567000       0.35136000      16.86876000       2.77340200       2.71488700       1.74137200
Zr      11.04321000       1.15800000      12.42516000      -0.59957000       0.47993300      -0.40457200
Zr      15.88664000       8.20243000      15.63379000      -0.37654100      -0.03082600      -0.88656700
Zr      16.31799000      21.11155000      15.56585000      -1.98748200       0.39943400      -0.33949800
Zr      13.38258000      20.01300000      11.00461000      -1.59347700       0.21926400       1.37547000
Zr      16.77673000      15.11650000      16.44713000      -0.19089800       0.25607900       0.12405300
Zr      14.60663000       5.37504000      14.84710000      -0.65779700      -0.64790500       0.28105400
Zr      17.94645000       2.81266000      18.57186000       0.02429400      -0.32218200       0.25434800
Zr      13.18459000      21.83842000      14.14753000       0.67563400       0.34272800      -0.28949800
Zr      14.05988000      15.62025000      14.34040000      -0.81612400       0.01264400       0.40655700
Zr      19.19109000      22.15170000      16.71382000       0.49341300       0.20739600       0.47657200
Zr      18.36099000      19.72263000      13.41615000       0.89635000      -0.66035300       0.05612900
O       12.00433000       0.36267000      15.81974000       0.50626800      -1.59550900      -1.88429100
O       12.00382000       1.66000000      10.78199000      -0.16208100      -0.62200500       0.31830300
O       15.20425000      16.14716000      15.83227000       0.55866900      -0.30553700       0.42454700
O       18.23155000      21.50384000      14.88386000       0.69164000       0.64834200      -0.74816700
O       17.11044000      13.70143000      15.02985000      -0.16312200       0.47092000       0.45503500
O       11.78114000      20.35995000      14.51750000      -0.17533100       0.08557600       0.00035200
O       15.32776000       3.43969000      14.10402000       0.19659800       0.39807700      -0.15184700
O       17.10965000      21.94756000      17.22949000       0.40735300       0.40747000       1.19585600
O       16.37792000      20.01874000      13.77585000      -0.19952700      -0.24020300      -0.11557700
O       11.63306000       0.08536000      18.32607000      -0.26463900      -0.14161300      -0.32506500
O       12.47045000      21.75607000      12.20643000      -0.29121500       0.20117800      -0.60040800
O       17.53149000       7.26777000      16.11508000      -0.09415700      -0.18377200       0.42763300
O       16.70591000      19.44198000      16.52766000      -0.35308600      -0.20843400       0.08303400
O       14.89877000      18.79709000      10.76096000       0.20511800       0.18793700      -0.86526700
O       16.20091000       1.98006000      18.02268000       0.07168800       0.11801100      -0.28429500
O       12.73408000       1.28518000      13.54410000      -0.09902900       0.57616000       0.89385200
O        9.88087000      18.79150000      13.76902000      -0.83218700       0.44922100       0.10013200
O       19.08389000       1.24971000      17.84143000      -0.10510400       0.48891800       0.32227100
O       18.10513000       1.50183000      12.86428000      -0.92132800       0.56263900      -0.22757200
O       17.97204000      16.70145000      17.09280000      -0.12597500      -0.83235100       0.00098700
O       17.64647000      18.40054000      12.18164000       0.13554800      -0.26755300      -0.31134000
O        9.47133000      21.38170000      16.01690000      -1.61105000      -0.95792000       0.36030300
O       12.73358000       4.65274000      15.01445000       0.67756800       0.35046000       0.06457800
O       17.50010000       1.49167000      20.13936000       0.14925700       0.41175900      -0.37425600
O       14.28600000      21.45850000      15.98007000       0.29109300       0.33149100      -0.36732000
O       11.76289000      18.86417000      11.41852000       0.59398300       0.11853000       0.18699600
O       14.23776000      13.59249000      14.70853000      -0.12073300      -0.08417300      -0.24792300
O       19.10295000      18.68167000      14.96043000      -0.04323800       0.02116800      -0.40724100
O       10.56668000       2.22971000      16.36926000      -0.76976000       1.10303700      -0.44526800
O       15.27792000       7.07862000      14.06250000       0.26807500       0.75876800       0.34830400
O       17.41110000       4.75524000      18.82620000       0.05390800       0.24617900       0.32482200
O       16.29578000       1.05869000      15.09580000       0.20987800      -0.45041600      -0.63037400
O       13.95868000      21.74178000       9.97818000       0.04028700      -0.98966100      -0.11827600
O       15.07377000      16.56114000      13.00952000       0.52473100       0.41258300      -0.63375700
O       19.43785000      21.13080000      12.48791000       0.28592900       0.08128600       0.10189500
O       10.82191000       2.92574000      13.39226000      -0.56774700      -0.61449800      -0.02377100
O       17.56554000       3.65961000      16.48335000       0.50220500       0.15395100       0.57938800
O       14.89505000       0.04143000      13.02422000       0.29578300       0.29658400      -0.38742800
O       14.60627000      22.42104000      18.97380000      -0.20711600      -0.23167100       0.38237400
O       12.35686000      16.75222000      14.25367000       0.66102400      -0.49590100      -0.06710300
O       20.31236000       0.50447000      15.24999000       0.24420600      -0.20112100       0.13459700
O        9.60496000      22.26615000      12.97321000       0.90804900      -0.16136000       0.51862700
O       15.02904000       6.53442000      16.61297000       0.24216500       0.53884300       0.19009600
O       15.23917000       2.14500000      11.24999000       0.08663800      -0.75366700       0.76592700
O       13.88855000       2.14462000      16.63944000      -0.53552800      -0.59975900      -0.04883800
O       13.74821000      19.49141000      13.06370000       0.65418100       0.38236300      -0.30876400
O       19.47795000      20.32427000      17.44785000      -0.06092900      -0.17263000       0.03665300
Zr      15.62109000      12.48099000      15.59321000       0.17683700      -0.47028300       0.16322000
O       15.70187000      10.31759000      15.62747000       0.11266700      -0.22514200       0.03170500
O       15.83589000      13.50811000      17.29423000       0.18275100       0.39940200      -0.49534200
