74
Lattice="30.0 0.0 0.0 0.0 22.52911 0.0 0.0 0.0 30.0" Properties=species:S:1:pos:R:3:forces:R:3 energy=-673.32562614 pbc="T T T"
Zr      15.81502000       2.66718000      16.03878000      -0.90083000      -0.19946700       0.08957800
Zr      13.75024000       0.73411000      11.11371000       1.94812300      -0.25508100      -0.19279700
Zr      13.39677000       0.27849000      17.44909000       1.37201400       1.33200200      -1.89063500
Zr      11.81198000      18.46994000      13.41824000       0.30867700       0.31477500      -0.66805500
Zr      19.35616000       0.26681000      13.57409000      -0.36752600       0.22728800       0.04226700
Zr      18.43236000      18.61948000      16.76603000       0.55828100      -0.19279800       0.10074400
Zr      11.89268000       2.79388000      14.97938000       2.59879200       0.38249000      -0.43137800
Zr       9.81710000      20.69510000      14.24054000       0.03318000       0.04538100      -0.68833000
Zr      16.90168000       5.51590000      17.04077000      -0.11301400       0.66290400       0.18552400
Zr      16.09039000       1.80164000      13.03358000      -0.94056200      -0.43473900      -0.86899300
Zr      16.50957000       0.24367000      18.99703000       0.41173300       0.20836100       1.51449100
Zr      15.70861000      18.37369000      12.46380000      -0.54875600       0.06327700       0.91486300
Zr      10.31127000       0.40179000      16.89286000       1.67710000       0.46839800      -0.74395800
Zr      11.04265000       1.18814000      12.45569000      -0.09007500       0.63339200      -0.70573300
Zr      15.90557000       8.22819000      15.61932000      -0.42450600      -0.97784200      -0.54284000
Zr      16.29090000      21.13128000      15.54958000      -1.02106400       0.57929700       0.15557500
Zr      13.36818000      20.02809000      11.02423000      -0.15697200       0.69574300       0.53072400
Zr      16.76430000      15.10836000      16.45169000       1.30542300       0.90984400       0.43210600
Zr      14.61997000       5.36640000      14.82092000       0.71316900      -0.38247100       0.58800400
Zr      17.89949000       2.80260000      18.57805000       1.84738800       0.67298700       1.01024400
Zr      13.19763000      21.79932000      14.09122000       0.76095000       0.39630400       0.06796600
Zr      14.05304000      15.62119000      14.39970000       0.24953000      -0.12224500      -0.38675700
Zr      19.16618000      22.17557000      16.73435000       1.00682200       0.63001600       0.58688800
Zr      18.36064000      19.75824000      13.41976000       0.96852500      -1.12272200      -0.47119900
O       12.00052000       0.30894000      15.69858000      -0.44234300      -0.95489200      -0.17389400
O       11.99574000       1.63339000      10.77831000      -0.84240700      -0.33958700       0.77785300
O       15.24901000      16.15533000      15.85857000      -0.76467200       0.18000500      -0.18140700
O       18.22692000      21.60121000      14.86229000       0.03501700      -0.02244300      -0.29227000
O       17.10571000      13.72049000      15.05607000      -0.51581200      -0.47242400       0.02214400
O       11.77848000      20.32910000      14.60444000      -0.39003300      -0.19604400      -0.90335300
O       15.27319000       3.41687000      14.09651000       0.76887400       0.34595200       0.03402200
O       17.10101000      21.97335000      17.30648000       0.53220200      -0.37483300      -0.52291700
O       16.41434000      20.01599000      13.80093000      -0.84652000      -0.21245700       0.01673800
O       11.64554000       0.14164000      18.27522000      -1.03266800      -0.33674100       0.91701300
O       12.45363000      21.76180000      12.16075000      -0.31572400       0.15207100       0.04112000
O       17.52732000       7.23573000      16.06176000       0.42624600      -0.12938400       0.43476800
O       16.71693000      19.46899000      16.54623000      -0.41053300       0.07692300      -0.08481000
O       14.91927000      18.85030000      10.79035000       0.20944900      -0.14239100      -1.00079100
O       16.24130000       1.95562000      18.07807000      -1.52343100       0.16801900      -1.57063700
O       12.79145000       1.29368000      13.58108000      -1.12889400       0.57068300      -0.06691000
O        9.82367000      18.76379000      13.74288000       0.41712400       0.67042800      -0.02559000
O       19.14471000       1.30872000      17.86742000      -0.29063400      -0.23208900      -0.09756900
O       18.03751000       1.50904000      12.79838000       0.74391600      -0.04667600       0.11810600
O       17.94028000      16.67833000      17.12743000       0.28545600      -0.05011300      -0.06892900
O       17.66142000      18.41495000      12.14865000       0.06919400       0.02775400       0.12242800
O        9.42328000      21.36889000      16.03810000      -0.59801600       0.36779500       0.41191300
O       12.88592000       4.56816000      15.00103000      -1.33834200      -0.31347900       0.34045100
O       17.51844000       1.50733000      20.15661000      -0.04603000      -0.17309100      -0.38454900
O       14.28330000      21.50104000      15.97473000       0.38064900       0.15954100      -0.42842900
O       11.80249000      18.88753000      11.42952000      -0.25460900      -0.47876600       0.43767400
O       14.26601000      13.55764000      14.62864000      -0.20978800       0.07993000       0.22252200
O       19.08264000      18.70186000      14.93942000       0.01127200      -0.13536700      -0.15166700
O       10.69413000       2.26748000      16.39297000      -2.26984800       0.69248000       1.06921000
O       15.29961000       7.11505000      14.08177000       0.00340900       0.75725400      -0.08291600
O       17.41962000       4.75128000      18.85155000      -0.15351000       0.41944500      -0.38030900
O       16.33520000       1.04355000      15.04019000      -0.01797900      -0.48718600      -0.03567900
O       13.96865000      21.69742000       9.93356000      -0.38649100      -0.18210000       0.63546100
O       15.05786000      16.54601000      13.01336000       0.17461700      -0.00947600      -0.12906700
O       19.45833000      21.14664000      12.51623000       0.46362600       0.35872600       0.00651600
O       10.79491000       3.03923000      13.39228000      -0.41865300      -1.78724700      -0.16697700
O       17.55442000       3.64406000      16.49474000       0.61465600      -0.05863900       0.36161900
O       14.94562000       0.04435000      12.91748000      -0.62872200      -0.34308100       0.28031300
O       14.60751000      22.39675000      18.95632000      -0.49209700      -0.23521800       0.36892300
O       12.37905000      16.71407000      14.20424000       0.11638900       0.06861400       0.01436300
O       20.31101000       0.51916000      15.27321000       0.03802700      -0.23707500      -0.21411600
O        9.63916000      22.23353000      12.93103000       0.93830700       0.06941200       0.66064200
O       15.08207000       6.57419000      16.64102000      -0.05742300       0.19657000      -0.03316700
O       15.30497000       2.07869000      11.20217000      -0.70105000      -0.65145000       0.51859800
O       13.93388000       2.16314000      16.65688000      -1.01604600      -1.40816800       0.44830800
O       13.80819000      19.50858000      13.05791000      -0.18983000       0.43833200       0.28509600
O       19.49958000      20.32546000      17.42060000      -0.34505000      -0.16235100      -0.09588100
Zr      15.59285000      12.47612000      15.61706000       0.89434900       0.05132800       0.18848100
O       15.66938000      10.29559000      15.63968000       0.13283200       0.81214700       0.03055700
O       15.88533000      13.59567000      17.32029000      -0.81734500      -1.03582900      -0.29945600
