74
Lattice="30.0 0.0 0.0 0.0 22.52911 0.0 0.0 0.0 30.0" Properties=species:S:1:pos:R:3:forces:R:3 energy=-673.57921671 pbc="T T T"
Zr      15.81979000       2.65384000      16.03776000      -0.78819900      -0.32339000      -0.07245300
Zr      13.74899000       0.72864000      11.11061000       1.71917300      -0.71608400      -0.48988000
Zr      13.39468000       0.28883000      17.45956000       1.34013300       0.89348200      -1.92513200
Zr      11.82451000      18.46803000      13.40685000      -0.10797300       0.37682900      -0.16599400
Zr      19.35277000       0.27981000      13.57603000      -0.26766600       0.47358500      -0.04660900
Zr      18.43395000      18.61096000      16.76096000       0.15247300       0.00848000      -0.03916100
Zr      11.87115000       2.77102000      14.98462000       2.52696400       0.63240700      -0.66515600
Zr       9.80612000      20.68168000      14.22877000      -0.06383500       0.58745800       0.45654500
Zr      16.90922000       5.51167000      17.02435000      -0.07388100       0.84541300       0.45624200
Zr      16.09126000       1.80535000      13.02223000      -0.84818500      -0.58982300      -0.73386900
Zr      16.52092000       0.23864000      19.00685000      -0.40437700       0.34213000       1.44317500
Zr      15.71323000      18.35342000      12.46942000      -0.59742100       0.59812000       0.06692200
Zr      10.33462000       0.43027000      16.90256000       0.43832500      -0.59733700      -1.94955800
Zr      11.04153000       1.20573000      12.46544000      -0.37993700       0.16865900      -0.49176100
Zr      15.91147000       8.23480000      15.60902000      -0.13060900      -0.79713000      -0.10502200
Zr      16.27121000      21.14353000      15.54281000      -0.35521000       0.45891300       0.06036200
Zr      13.35874000      20.03868000      11.03738000       0.67221300       0.51319000       0.17445800
Zr      16.76489000      15.10948000      16.45608000       1.29056600       0.86388500       0.42198200
Zr      14.62865000       5.35963000      14.81243000       0.79716300      -0.10257500       0.56164000
Zr      17.88752000       2.80078000      18.58626000       1.74816200       1.01706800       0.74547000
Zr      13.20830000      21.78399000      14.06604000       0.29863300       0.34446200      -0.02184400
Zr      14.04999000      15.62104000      14.42516000       0.63926900      -0.36235300      -0.89504700
Zr      19.16039000      22.18967000      16.74719000       1.24764100       0.61183200       0.23114300
Zr      18.36641000      19.76795000      13.41938000       0.64512900      -0.92340500      -0.85609800
O       11.99143000       0.24562000      15.62435000      -0.87242300      -0.17437600       0.93005100
O       11.96573000       1.60714000      10.80258000      -0.40279600      -0.06072600       0.21898900
O       15.25200000      16.16172000      15.86859000      -0.83083800       0.27881300      -0.15194600
O       18.23196000      21.64965000      14.83810000      -0.44909300      -0.51674700       0.16924200
O       17.08698000      13.71866000      15.07239000      -0.28679000      -0.53262200      -0.22500700
O       11.76329000      20.31034000      14.61836000      -0.01204900      -0.26271800      -1.16707200
O       15.27165000       3.41882000      14.09278000       0.87779300       0.33716500       0.09702300
O       17.11460000      21.97761000      17.33524000       0.46098600      -0.49194200      -0.86482700
O       16.40443000      20.00660000      13.81101000      -0.56472300      -0.14285100       0.12083900
O       11.61926000       0.15615000      18.27650000      -0.30791600      -0.30205400       1.13012400
O       12.43446000      21.76961000      12.13629000      -0.03971400       0.10876600       0.43998100
O       17.53714000       7.21643000      16.05281000       0.42639000      -0.07320000       0.34057600
O       16.70657000      19.48244000      16.55252000      -0.00730400      -0.03785300      -0.06545900
O       14.93567000      18.87136000      10.76650000       0.11059400      -0.21210500      -0.20572300
O       16.21607000       1.95147000      18.05493000      -1.02843800      -0.06328400      -1.01738900
O       12.78257000       1.31831000      13.60143000      -0.78015500       0.31409200      -0.30826700
O        9.80369000      18.77474000      13.73180000       0.75737800       0.24781300      -0.24654000
O       19.16319000       1.33211000      17.87858000      -0.38958600      -0.32814200      -0.12230600
O       18.02143000       1.51470000      12.77061000       0.94538000      -0.06387500       0.15166800
O       17.93237000      16.65944000      17.14105000       0.51417300       0.37789200      -0.08449300
O       17.67108000      18.42009000      12.13451000       0.00343300       0.17211200       0.38447600
O        9.37293000      21.36541000      16.06123000       0.01601400       0.81171800       0.09160700
O       12.92161000       4.52364000      15.00492000      -1.39884700      -0.25784000       0.37044400
O       17.52647000       1.51194000      20.15085000      -0.16631600      -0.25019600      -0.29626500
O       14.29449000      21.52684000      15.95735000       0.29468700       0.12938400      -0.29472300
O       11.81819000      18.88623000      11.44764000      -0.58579700      -0.68665900       0.34174600
O       14.27215000      13.54320000      14.59729000      -0.23839400       0.22663700       0.40960600
O       19.07358000      18.70770000      14.92135000       0.03952300      -0.28327500       0.23532800
O       10.68158000       2.31381000      16.43003000      -1.83278500       0.34668700       0.89915200
O       15.31173000       7.15911000      14.09034000      -0.26146000       0.20785600      -0.30526100
O       17.41926000       4.76349000      18.85394000      -0.13280700       0.24108100      -0.47216500
O       16.35451000       1.01866000      15.00873000      -0.30053900      -0.05203100       0.36578800
O       13.96236000      21.66468000       9.93051000      -0.40112000       0.33752900       0.68502600
O       15.05993000      16.54273000      13.00592000      -0.00798600      -0.24135800       0.19904200
O       19.48261000      21.16524000      12.52993000       0.39826500       0.12474100      -0.03747100
O       10.76689000       3.03411000      13.38530000      -0.25504300      -1.54083100       0.26966100
O       17.57130000       3.63722000      16.51448000       0.25765000      -0.32068600       0.08061600
O       14.95291000       0.03795000      12.87469000      -0.87866100      -0.42163800       0.54341100
O       14.59158000      22.37722000      18.96182000      -0.03639500      -0.09070300       0.28825400
O       12.39706000      16.69498000      14.18214000      -0.16984600       0.33251300       0.03348100
O       20.31276000       0.51779000      15.27770000       0.03458800      -0.19243300      -0.06062400
O        9.68766000      22.21945000      12.93464000       0.63585200       0.13782800       0.49903100
O       15.10632000       6.60156000      16.65398000      -0.23403700      -0.06505900      -0.17561700
O       15.31512000       2.02422000      11.20140000      -0.71389200      -0.16066000       0.09761600
O       13.92138000       2.12676000      16.67794000      -0.76251700      -1.14736500       0.24336000
O       13.83435000      19.53141000      13.06113000      -0.46266900       0.37407400       0.38128500
O       19.49927000      20.32046000      17.40586000      -0.40643900      -0.15029400      -0.11689200
Zr      15.58484000      12.47373000      15.62907000       0.78146700       0.11139400       0.03247500
O       15.65922000      10.30756000      15.64625000       0.16223300       0.75568300       0.02298000
O       15.88624000      13.60899000      17.31865000      -0.99217400      -1.18863600      -0.01069600
