74
Lattice="30.0 0.0 0.0 0.0 22.52911 0.0 0.0 0.0 30.0" Properties=species:S:1:pos:R:3:forces:R:3 energy=-673.74770615 pbc="T T T"
Zr      15.82147000       2.64178000      16.03674000      -0.63503200      -0.41932400      -0.12491500
Zr      13.75290000       0.72207000      11.10667000       0.95758900      -1.03357700      -0.58937500
Zr      13.39675000       0.30007000      17.46279000       0.76750600       0.08191000      -1.47957700
Zr      11.83474000      18.46751000      13.39677000      -0.41607800       0.33734200       0.36368400
Zr      19.34916000       0.29198000      13.57754000      -0.05161200       0.47924500      -0.04989600
Zr      18.43579000      18.60386000      16.75663000      -0.21004600       0.31370200      -0.13950500
Zr      11.86040000       2.75366000      14.98719000       1.71765000       0.56350000      -0.25622900
Zr       9.79677000      20.67209000      14.22004000      -0.14987900       1.06023900       1.35445200
Zr      16.91530000       5.51055000      17.01189000      -0.02001200       0.88875000       0.59614900
Zr      16.08955000       1.80675000      13.01061000      -0.52615400      -0.81759500      -0.51140700
Zr      16.52936000       0.23537000      19.01919000      -1.13615600       0.24130000       0.80782000
Zr      15.71536000      18.33811000      12.47449000      -0.65556000       0.97667600      -0.49371800
Zr      10.35564000       0.45258000      16.90527000      -0.51773800      -1.18024000      -2.47498800
Zr      11.03951000       1.22098000      12.47214000      -0.78776000      -0.43608100      -0.19741100
Zr      15.91598000       8.23802000      15.60003000       0.17831100      -0.38711000       0.32547700
Zr      16.25361000      21.15510000      15.53734000       0.24778300       0.19919600      -0.01721900
Zr      13.35261000      20.04901000      11.04898000       1.01591000       0.09247900       0.07585700
Zr      16.76906000      15.11289000      16.46099000       0.76083000       0.56310100       0.38038100
Zr      14.63813000       5.35359000      14.80697000       0.38916500      -0.01015900       0.54420400
Zr      17.88256000       2.80214000      18.59529000       1.29170300       1.10659000       0.24566300
Zr      13.21815000      21.77217000      14.04494000      -0.20734800       0.24973600      -0.04510200
Zr      14.04917000      15.61990000      14.44393000       0.63581900      -0.61550400      -1.30010700
Zr      19.15912000      22.20320000      16.75865000       1.37903900       0.38574800      -0.15792200
Zr      18.37316000      19.77337000      13.41668000       0.32789600      -0.64055800      -0.97557300
O       11.97005000       0.18897000      15.57638000      -0.93218300       0.42095000       1.54552900
O       11.93381000       1.58393000      10.82676000       0.25986700       0.17611600      -0.53807300
O       15.24122000      16.17143000      15.87467000      -0.40276800       0.19508700       0.14213600
O       18.22937000      21.68215000      14.82012000      -0.66342600      -0.82449300       0.43665100
O       17.06648000      13.70865000      15.08268000       0.04296900      -0.27952200      -0.28806300
O       11.75003000      20.29047000      14.61107000       0.32909900      -0.21097800      -1.20525800
O       15.28473000       3.42605000      14.09113000       0.87424700       0.32777600       0.06198400
O       17.13353000      21.97337000      17.34572000       0.24437700      -0.32796300      -0.66456200
O       16.38664000      19.99629000      13.82124000      -0.15866600      -0.12255100       0.10363100
O       11.59161000       0.16328000      18.29586000       0.51247300      -0.22914600       1.01842900
O       12.41757000      21.77793000      12.12261000       0.25344200       0.01410700       0.62888200
O       17.55232000       7.19906000      16.05103000       0.29545400       0.00562400       0.22243500
O       16.69737000      19.49314000      16.55668000       0.31241600      -0.18111200      -0.04400700
O       14.95124000      18.88557000      10.74236000      -0.05550800      -0.20673800       0.45764500
O       16.17782000       1.94721000      18.01850000      -0.14385800      -0.22831200      -0.15466300
O       12.76209000       1.34434000      13.61372000      -0.23335700       0.06842700      -0.32719900
O        9.79900000      18.78836000      13.71867000       0.79009200      -0.18582600      -0.41644000
O       19.17228000       1.34647000      17.88600000      -0.47139200      -0.22963200      -0.02732800
O       18.02302000       1.51855000      12.74984000       0.62314500       0.09072500       0.13174800
O       17.93393000      16.64924000      17.15105000       0.57310600       0.46500400      -0.11132100
O       17.67926000      18.42702000      12.12872000      -0.06756000       0.21177000       0.50309900
O        9.33041000      21.37531000      16.08234000       0.39964900       0.90840800      -0.27724400
O       12.92886000       4.48236000      15.01420000      -0.83585600       0.07551400       0.30687500
O       17.53057000       1.51183000      20.14113000      -0.24215500      -0.18099400      -0.14126700
O       14.30867000      21.55063000      15.93783000       0.07275100       0.14924700      -0.16564700
O       11.82224000      18.87420000      11.46827000      -0.53870100      -0.60228500      -0.01974600
O       14.27336000      13.53473000      14.57767000      -0.25079900       0.33631300       0.52868700
O       19.06663000      18.70807000      14.90960000       0.06302400      -0.36143700       0.39620200
O       10.64067000       2.35873000      16.47559000      -0.98865800       0.16992200       0.16881600
O       15.31782000       7.19984000      14.09266000      -0.46107300      -0.34626800      -0.47931700
O       17.41677000       4.77783000      18.84832000      -0.07531700       0.04378400      -0.42299300
O       16.36595000       0.99663000      14.98794000      -0.53923500       0.37913500       0.53130300
O       13.95057000      21.64229000       9.93906000      -0.29102000       0.64978500       0.49737600
O       15.06182000      16.53638000      13.00255000      -0.02901000      -0.27017600       0.31895200
O       19.50952000      21.18304000      12.54083000       0.27556200      -0.13616800      -0.04911900
O       10.73899000       3.00440000      13.38355000      -0.19346500      -0.94917400       0.68321500
O       17.59000000       3.62651000      16.53260000      -0.09318500      -0.46648700      -0.14454800
O       14.94490000       0.02585000      12.84765000      -0.86387600      -0.31268400       0.70870800
O       14.57732000      22.35928000      18.97129000       0.46821400       0.06797800       0.23329900
O       12.40969000      16.68414000      14.16422000      -0.29686500       0.41940300       0.07489100
O       20.31480000       0.51345000      15.28031000       0.04310600      -0.12456500       0.09909900
O        9.73893000      22.20983000      12.94606000       0.27865600       0.12643100       0.32659100
O       15.12293000       6.62362000      16.66203000      -0.33415800      -0.26436200      -0.31022400
O       15.31203000       1.97567000      11.20285000      -0.45723200       0.37306700      -0.21499200
O       13.89818000       2.07751000      16.69957000      -0.38340300      -0.47065100      -0.16297600
O       13.84892000      19.55674000      13.06989000      -0.55310500       0.29633100       0.28104700
O       19.49240000      20.31383000      17.39166000      -0.38014300      -0.08836500      -0.09354400
Zr      15.58041000      12.47204000      15.63922000       0.47411200       0.08322900      -0.13122300
O       15.65341000      10.32985000      15.65212000       0.21143200       0.36839100       0.01017000
O       15.87102000      13.60101000      17.31667000      -0.82166400      -0.83177700       0.08964400
