74
Lattice="30.0 0.0 0.0 0.0 22.52911 0.0 0.0 0.0 30.0" Properties=species:S:1:pos:R:3:forces:R:3 energy=-673.74663414 pbc="T T T"
Zr      15.82159000       2.63925000      16.03650000      -0.59860800      -0.42900500      -0.12904200
Zr      13.75405000       0.72046000      11.10570000       0.76152700      -1.08129200      -0.59291800
Zr      13.39746000       0.30241000      17.46292000       0.62014900      -0.13674700      -1.34172200
Zr      11.83667000      18.46752000      13.39484000      -0.47305800       0.31688700       0.47565300
Zr      19.34840000       0.29456000      13.57782000      -0.00443000       0.45184700      -0.03631900
Zr      18.43611000      18.60252000      16.75574000      -0.27315100       0.38204800      -0.15186000
Zr      11.85888000       2.75039000      14.98758000       1.51821400       0.53810400      -0.13446600
Zr       9.79487000      20.67048000      14.21866000      -0.15778400       1.13876500       1.50688500
Zr      16.91649000       5.51060000      17.00959000      -0.00901800       0.88036700       0.61421100
Zr      16.08901000       1.80679000      13.00811000      -0.44771600      -0.86358200      -0.46068500
Zr      16.53073000       0.23481000      19.02195000      -1.26680800       0.19037300       0.64244600
Zr      15.71558000      18.33534000      12.47539000      -0.66242300       1.03692800      -0.57117600
Zr      10.35973000       0.45669000      16.90506000      -0.66350000      -1.26101300      -2.50732000
Zr      11.03890000       1.22392000      12.47338000      -0.86733400      -0.57245400      -0.14730800
Zr      15.91691000       8.23850000      15.59831000       0.23652900      -0.29934100       0.40269100
Zr      16.25013000      21.15749000      15.53626000       0.37493900       0.12975300      -0.02216000
Zr      13.35169000      20.05114000      11.05131000       1.03609600      -0.01264700       0.07911900
Zr      16.77018000      15.11378000      16.46208000       0.62197600       0.48496900       0.37139400
Zr      14.64018000       5.35238000      14.80606000       0.27991800      -0.00454200       0.54279800
Zr      17.88203000       2.80276000      18.59721000       1.19184600       1.10966400       0.13270400
Zr      13.22009000      21.76991000      14.04074000      -0.31101500       0.22730700      -0.03757200
Zr      14.04922000      15.61950000      14.44728000       0.60268300      -0.66171600      -1.37114000
Zr      19.15930000      22.20604000      16.76091000       1.39303700       0.32073400      -0.23221900
Zr      18.37463000      19.77422000      13.41583000       0.27263800      -0.58402900      -0.96516000
O       11.96412000       0.17819000      15.56938000      -0.90731200       0.52172200       1.61720800
O       11.92760000       1.57953000      10.83098000       0.40023900       0.21846500      -0.69545600
O       15.23810000      16.17377000      15.87597000      -0.28477400       0.16510400       0.21605600
O       18.22773000      21.68726000      14.81722000      -0.67430700      -0.86106100       0.46458600
O       17.06231000      13.70600000      15.08421000       0.11575400      -0.20255400      -0.28259100
O       11.74783000      20.28610000      14.60744000       0.38644800      -0.18419400      -1.18935000
O       15.28891000       3.42808000      14.09094000       0.86403100       0.32280700       0.04453100
O       17.13785000      21.97184000      17.34646000       0.18719800      -0.27443500      -0.58801100
O       16.38262000      19.99401000      13.82348000      -0.07541700      -0.12239500       0.08842800
O       11.58666000       0.16424000      18.30163000       0.64461300      -0.20687100       0.95297500
O       12.41453000      21.77966000      12.12095000       0.30876600      -0.00949900       0.64536200
O       17.55594000       7.19558000      16.05114000       0.25914900       0.02627600       0.19557600
O       16.69597000      19.49500000      16.55742000       0.36005000      -0.20506300      -0.04311900
O       14.95433000      18.88801000      10.73808000      -0.09327400      -0.20033300       0.57079400
O       16.16952000       1.94603000      18.01055000       0.03750000      -0.25485700       0.02831700
O       12.75732000       1.34976000      13.61556000      -0.11345300       0.01784300      -0.31164200
O        9.79951000      18.79093000      13.71539000       0.77170600      -0.26234000      -0.44123900
O       19.17327000       1.34884000      17.88738000      -0.48345600      -0.19681800      -0.00100900
O       18.02466000       1.51939000      12.74596000       0.52262800       0.13083500       0.12489900
O       17.93527000      16.64805000      17.15285000       0.56654000       0.44747500      -0.11898200
O       17.68079000      18.42877000      12.12844000      -0.08363600       0.20810700       0.51028000
O        9.32250000      21.37890000      16.08621000       0.45746500       0.90534600      -0.34695800
O       12.92848000       4.47411000      15.01663000      -0.68570600       0.15997600       0.28691800
O       17.53098000       1.51144000      20.13886000      -0.25102200      -0.15379200      -0.09938700
O       14.31175000      21.55561000      15.93359000       0.01089400       0.15715200      -0.14021900
O       11.82201000      18.87065000      11.47254000      -0.49221000      -0.55484300      -0.12178300
O       14.27316000      13.53361000      14.57466000      -0.25226800       0.35482300       0.54685100
O       19.06535000      18.70752000      14.90793000       0.06610700      -0.36643200       0.39773300
O       10.63033000       2.36806000      16.48533000      -0.80725700       0.12826300       0.00412700
O       15.31829000       7.20758000      14.09233000      -0.49104900      -0.44851100      -0.50298700
O       17.41611000       4.78085000      18.84640000      -0.06227400       0.00726000      -0.40196000
O       16.36736000       0.99273000      14.98472000      -0.58048900       0.46009000       0.54001200
O       13.94764000      21.63888000       9.94177000      -0.25844200       0.68921100       0.43776900
O       15.06214000      16.53462000      13.00241000      -0.01952700      -0.25695200       0.32487500
O       19.51544000      21.18645000      12.54291000       0.24547600      -0.18108200      -0.04720900
O       10.73308000       2.99646000      13.38423000      -0.19660300      -0.79655100       0.76107600
O       17.59372000       3.62360000      16.53605000      -0.16014700      -0.48022300      -0.18345500
O       14.94172000       0.02281000      12.84347000      -0.83476000      -0.27537400       0.73349300
O       14.57508000      22.35576000      18.97362000       0.56252300       0.10167200       0.22143800
O       12.41171000      16.68272000      14.16077000      -0.30431000       0.41813300       0.08732600
O       20.31528000       0.51233000      15.28094000       0.04261200      -0.10868600       0.12216100
O        9.74981000      22.20816000      12.94900000       0.20193400       0.11651900       0.29359800
O       15.12566000       6.62762000      16.66313000      -0.34485500      -0.29730500      -0.33704400
O       15.31044000       1.96643000      11.20288000      -0.37770700       0.48328100      -0.26225100
O       13.89268000       2.06649000      16.70379000      -0.29803300      -0.27664100      -0.26735400
O       13.85085000      19.56235000      13.07220000      -0.55700700       0.27826800       0.24392800
O       19.49033000      20.31232000      17.38865000      -0.36543300      -0.06806300      -0.08448700
Zr      15.57971000      12.47174000      15.64122000       0.39737000       0.07342600      -0.16519700
O       15.65262000      10.33516000      15.65332000       0.22245600       0.26476800       0.00708000
O       15.86640000      13.59771000      17.31641000      -0.75967100      -0.72224900       0.09600300
