74
Lattice="30.0 0.0 0.0 0.0 22.52911 0.0 0.0 0.0 30.0" Properties=species:S:1:pos:R:3:forces:R:3 energy=-673.73129551 pbc="T T T"
Zr      15.82164000       2.63670000      16.03625000      -0.56041200      -0.43494600      -0.13079500
Zr      13.75528000       0.71874000      11.10468000       0.55662200      -1.12145300      -0.59179900
Zr      13.39824000       0.30472000      17.46291000       0.46777800      -0.37378000      -1.18910500
Zr      11.83854000      18.46757000      13.39297000      -0.52603600       0.29196300       0.58639800
Zr      19.34765000       0.29717000      13.57810000       0.04086400       0.41519700      -0.01696700
Zr      18.43641000      18.60122000      16.75483000      -0.33170800       0.45137300      -0.16002500
Zr      11.85753000       2.74720000      14.98795000       1.31737000       0.51288300      -0.00597300
Zr       9.79296000      20.66900000      14.21745000      -0.16109000       1.20540200       1.64582300
Zr      16.91769000       5.51075000      17.00737000       0.00107300       0.86529900       0.62860800
Zr      16.08843000       1.80674000      13.00558000      -0.36910500      -0.90719000      -0.41072800
Zr      16.53197000       0.23427000      19.02478000      -1.38857500       0.13060900       0.46991000
Zr      15.71573000      18.33270000      12.47621000      -0.66866500       1.08979800      -0.63473800
Zr      10.36373000       0.46064000      16.90458000      -0.79055300      -1.32970600      -2.51223200
Zr      11.03819000       1.22680000      12.47460000      -0.93927000      -0.71091200      -0.10755000
Zr      15.91785000       8.23895000      15.59665000       0.29084200      -0.21517400       0.47350800
Zr      16.24671000      21.15988000      15.53517000       0.50393100       0.05744400      -0.02273800
Zr      13.35089000      20.05325000      11.05365000       1.04208800      -0.12185200       0.08808900
Zr      16.77136000      15.11471000      16.46322000       0.48093200       0.40536000       0.36342600
Zr      14.64225000       5.35118000      14.80521000       0.16868200      -0.00126200       0.54158300
Zr      17.88162000       2.80348000      18.59914000       1.09396000       1.10795300       0.02045400
Zr      13.22199000      21.76768000      14.03654000      -0.41345100       0.20405600      -0.02451600
Zr      14.04933000      15.61903000      14.45047000       0.55954500      -0.70414400      -1.43831500
Zr      19.15962000      22.20889000      16.76313000       1.40194200       0.24872100      -0.30185600
Zr      18.37612000      19.77500000      13.41489000       0.22127600      -0.52931600      -0.94208700
O       11.95766000       0.16778000      15.56338000      -0.87159400       0.61480000       1.67177600
O       11.92166000       1.57527000      10.83476000       0.53690600       0.25774700      -0.84498100
O       15.23483000      16.17620000      15.87740000      -0.16312600       0.13267600       0.29039600
O       18.22570000      21.69182000      14.81462000      -0.67405400      -0.88722600       0.48224300
O       17.05823000      13.70324000      15.08558000       0.18871800      -0.11971200      -0.27300200
O       11.74587000      20.28164000      14.60311000       0.43733100      -0.15149400      -1.16507000
O       15.29360000       3.43030000      14.09077000       0.85075400       0.31619000       0.02389500
O       17.14227000      21.97014000      17.34685000       0.12678300      -0.21728000      -0.50562200
O       16.37857000      19.99167000      13.82576000       0.00611000      -0.12347600       0.07067000
O       11.58212000       0.16508000      18.30796000       0.76045600      -0.18142800       0.87101000
O       12.41168000      21.78138000      12.11969000       0.36105800      -0.03395200       0.65426600
O       17.55970000       7.19212000      16.05136000       0.22049000       0.04865600       0.16777600
O       16.69478000      19.49674000      16.55813000       0.40036400      -0.22600800      -0.04384900
O       14.95734000      18.89032000      10.73417000      -0.13051900      -0.19225700       0.67435000
O       16.16127000       1.94470000      18.00265000       0.21292000      -0.27742300       0.20734800
O       12.75250000       1.35516000      13.61721000       0.00551900      -0.03193100      -0.29100000
O        9.80047000      18.79334000      13.71185000       0.74614400      -0.33138400      -0.46198800
O       19.17397000       1.35109000      17.88874000      -0.49305900      -0.16136000       0.02638800
O       18.02660000       1.52030000      12.74217000       0.41544300       0.17105100       0.11843300
O       17.93694000      16.64713000      17.15457000       0.55417800       0.41935200      -0.12712400
O       17.68228000      18.43064000      12.12846000      -0.09963600       0.20033000       0.51156400
O        9.31491000      21.38301000      16.08985000       0.50930100       0.89532100      -0.41390200
O       12.92769000       4.46599000      15.01923000      -0.53166600       0.24908100       0.26497800
O       17.53123000       1.51095000      20.13654000      -0.25713400      -0.12237900      -0.05387900
O       14.31482000      21.56067000      15.92929000      -0.05529800       0.16561700      -0.11559200
O       11.82149000      18.86679000      11.47671000      -0.43543600      -0.49903400      -0.23216500
O       14.27280000      13.53270000      14.57201000      -0.25306800       0.37193300       0.56312400
O       19.06412000      18.70675000      14.90651000       0.06875600      -0.36737900       0.38846000
O       10.61954000       2.37742000      16.49504000      -0.62892500       0.08171600      -0.15817700
O       15.31845000       7.21501000      14.09170000      -0.51635000      -0.54290200      -0.52056200
O       17.41542000       4.78387000      18.84425000      -0.04920200      -0.02689100      -0.37787000
O       16.36842000       0.98912000      14.98182000      -0.61790900       0.53624600       0.54065800
O       13.94457000      21.63590000       9.94473000      -0.22240400       0.72015200       0.37204100
O       15.06245000      16.53271000      13.00247000      -0.00619200      -0.23806200       0.32560800
O       19.52147000      21.18975000      12.54495000       0.21450800      -0.22101000      -0.04376500
O       10.72707000       2.98808000      13.38538000      -0.20455900      -0.63620500       0.83504000
O       17.59732000       3.62041000      16.53937000      -0.22424200      -0.48755300      -0.21912900
O       14.93805000       0.01962000      12.83976000      -0.79811900      -0.23473400       0.75439800
O       14.57320000      22.35231000      18.97607000       0.65045400       0.13423700       0.20889800
O       12.41354000      16.68156000      14.15739000      -0.30520500       0.41058600       0.10109100
O       20.31578000       0.51114000      15.28164000       0.04061800      -0.09215400       0.14038000
O        9.76076000      22.20657000      12.95211000       0.12499500       0.10413600       0.26227100
O       15.12818000       6.63143000      16.66403000      -0.35294200      -0.32760800      -0.36299600
O       15.30863000       1.95752000      11.20276000      -0.29143400       0.59088700      -0.30270500
O       13.88703000       2.05535000      16.70784000      -0.21129000      -0.06336800      -0.37896800
O       13.85243000      19.56810000      13.07465000      -0.55584900       0.25992500       0.20235900
O       19.48804000      20.31077000      17.38560000      -0.34723300      -0.04440300      -0.07358500
Zr      15.57905000      12.47144000      15.64318000       0.31825600       0.06319400      -0.19893200
O       15.65196000      10.34060000      15.65451000       0.23425800       0.15515000       0.00387900
O       15.86134000      13.59399000      17.31620000      -0.69111600      -0.60511400       0.09807200
