95
Lattice="10.381444 0.0 -0.053824 0.0 10.490337 0.0 -1.746774 0.0 10.614441" Properties=species:S:1:pos:R:3:forces:R:3 energy=-909.88748645 stress="-2.46737 -0.05855 0.23583 -0.05855 -1.21168 0.67756 0.23583 0.67756 -2.6179" pbc="T T T"
O        0.61498000       9.14274000      10.47545000      -0.03156600       0.02212700      -0.03808400
O        4.35233000       1.71554000       7.13180000      -0.05627600       0.08803700      -0.00979300
O        6.68051000       3.89512000       5.13912000       0.07705900      -0.08949200       0.01650600
O        8.02038000       1.34677000       0.08639000       0.01971400       0.02345900      -0.02113000
O        7.58329000       1.27554000       2.74038000       0.01258700       0.04581100      -0.00348400
O        7.11697000       3.96787000       2.48525000       0.04170000      -0.06005700       0.00290600
O        4.78759000       0.90512000       4.47754000       0.02466100       0.04472700      -0.00731700
O        9.91059000       4.33922000       0.74830000      -0.05208400      -0.02538700      -0.02536300
O        9.47290000       3.52911000       3.40147000      -0.00390500      -0.00782900      -0.00045400
O        5.22481000       1.71682000       1.82599000      -0.00044400       0.03378800       0.02850400
O        7.11667000       6.59592000       5.37872000      -0.33208600       0.03979800      -0.05109300
O        1.95976000       6.58986000       5.41656000      -0.03351900      -0.01267200       0.03537800
O        1.51956000       6.52077000       8.07400000      -0.00632900      -0.02028200      -0.00774600
O        1.05122000       9.21470000       7.82072000      -0.00263500       0.01486400      -0.01561200
O       -1.27371000       6.15212000       9.81333000      -0.03842400      -0.03616400      -0.02223700
O        3.84568000       9.58552000       6.08113000       0.00470100       0.06049400       0.03444100
O        8.60124000       3.52886000       8.70892000      -0.00124500       0.02521200      -0.00067300
O        9.03796000       4.34055000       6.05431000      -0.04203000      -0.01055500       0.00685500
O        3.91478000       0.90521000       9.78602000       0.03804600       0.03975700      -0.03465700
O        6.24388000       3.96148000       7.79586000       0.03287600      -0.12538000       0.08053600
O        6.71489000       6.52620000       8.05048000       0.11289200       0.02791300       0.07691000
O        6.24170000       9.21473000       7.79327000       0.00197100       0.00442800       0.01314100
O        3.91507000       6.15236000       9.78693000       0.01483100       0.00652900      -0.00586600
O        9.03628000       9.58359000       6.05483000      -0.00919900      -0.00666600       0.02028100
O        8.60037000       8.77413000       8.70813000      -0.02024400       0.02911700      -0.00034500
O        4.35388000       6.95834000       7.12024000       0.03700900       0.02858300      -0.06719800
O        6.67612000       9.13935000       5.13659000       0.06121700       0.08679300       0.05489000
O        3.40881000       8.77393000       8.73553000       0.04179700      -0.04056600      -0.02287000
O        8.01936000       6.59258000       0.08793000      -0.00126900      -0.02777600      -0.00124400
O        7.11779000       9.21710000       2.48363000       0.09825300       0.09049500      -0.06839700
O        9.91064000       9.58358000       0.74762000       0.01196500       0.01824800      -0.03048000
O        9.47362000       8.77352000       3.40153000      -0.01956500       0.02679500       0.00276500
O        5.22259000       6.96225000       1.84397000       0.02049300      -0.18783700       0.09864000
O        5.80426000       3.89864000      10.44858000      -0.00107700       0.00054400      -0.00852000
O        7.14648000       1.34601000       5.39272000      -0.00450100       0.00829000       0.01485400
O        6.71021000       1.27352000       8.04698000      -0.00075600      -0.01177900      -0.00157900
O        7.57878000       6.52457000       2.74271000       0.06980600      -0.07161500      -0.00520900
O       -0.83854000       6.96146000       7.15869000      -0.03416900      -0.00672300      -0.01595200
O        5.80440000       9.14235000      10.44723000       0.01609100      -0.00176800      -0.04264300
O       -1.27486000       0.90607000       9.81334000      -0.00758100       0.00851000      -0.01326600
O        2.39378000       1.27455000       2.76696000      -0.01625600       0.02548000       0.00059400
O        1.92399000       3.96846000       2.50917000      -0.07360900      -0.08255700      -0.06230700
O       -0.40225000       0.90583000       4.50574000       0.03261000       0.03472600      -0.00810600
O        1.95700000       1.34557000       5.41920000       0.02419700       0.02553900       0.00529100
O        0.61477000       3.89849000      10.47447000       0.00621000      -0.01101200      -0.03426500
O        1.05106000       3.97055000       7.82100000       0.02582000      -0.02635600      -0.01437700
O        1.49178000       3.89892000       5.16797000      -0.00706400      -0.09241600       0.09953700
O        3.85603000       4.36257000       6.06242000      -0.07942200       0.02195500      -0.04302400
O        3.40825000       3.52943000       8.73541000       0.02629000      -0.02112400      -0.08250400
O        0.03668000       6.96133000       1.85290000       0.02414000      -0.00514100      -0.00280600
O        4.29182000       8.75690000       3.43490000      -0.15489800      -0.00277800       0.17994000
O        4.71908000       4.33935000       0.77508000      -0.00399400      -0.02170000      -0.01951400
O        4.28153000       3.54189000       3.43292000       0.12165500       0.03169200      -0.01697400
O        0.03563000       1.71569000       1.85223000      -0.02143000       0.02218100       0.01300600
O       -0.83767000       1.71545000       7.15935000      -0.02970900       0.03209400       0.00832900
O        4.71783000       9.58089000       0.77709000       0.04328100       0.04549300      -0.01419300
O       -0.40220000       6.15272000       4.50601000      -0.08488600      -0.04672700       0.02991700
O        1.92652000       9.21352000       2.51364000       0.01695700       0.04773600      -0.00609100
O        2.40255000       6.52147000       2.77271000       0.03364700       0.01077200       0.04096000
O        2.83074000       6.59331000       0.11450000      -0.01371200      -0.02435600      -0.03673600
O        1.48820000       9.14302000       5.16577000      -0.00790400       0.01818300       0.01328000
O        2.82981000       1.34685000       0.11351000      -0.01148700       0.01079900      -0.01695300
O        1.51999000       1.27534000       8.07398000       0.02843800       0.06751200      -0.04887800
Zr       0.37459000       0.22953000       6.41466000      -0.02867100      -0.06951500       0.00954500
Zr       2.19558000       5.01556000       9.47966000      -0.00413300       0.09571200       0.05259100
Zr       7.38590000      10.26283000       9.45319000      -0.00012900      -0.02258900       0.02161300
Zr       6.00913000       7.63647000       3.73855000      -0.11562700      -0.10922700       0.02870100
Zr       7.82164000       8.09672000       6.80497000      -0.04969800      -0.01091700      -0.09965000
Zr       5.13344000       7.63843000       9.04004000      -0.06441000       0.00733600       0.01195200
Zr       0.81219000       2.39568000       3.76000000       0.00014900      -0.00760100      -0.06157000
Zr       3.50395000       2.85094000       1.51759000       0.02925700       0.03939400       0.07040600
Zr       3.06082000       5.01024000       4.18066000       0.03416900       0.16295000      -0.08280200
Zr       5.56535000       5.46766000       6.39805000      -0.04667600       0.08505600      -0.09680200
Zr       8.69616000       8.09894000       1.49251000      -0.03033200      -0.00885500       0.04441600
Zr      -0.06279000       7.63926000       9.06757000       0.06382200      -0.00242100       0.00972800
Zr       6.44181000       5.46550000       1.08167000      -0.14999100       0.17615900       0.11784500
Zr       2.19586000      10.26333000       9.47910000       0.02941200      -0.06994300       0.02909200
Zr       0.37399000       5.47152000       6.41463000       0.01041900       0.09400300      -0.03794100
Zr       6.44146000       0.22977000       1.07927000      -0.08169300      -0.05719400       0.03490300
Zr       8.25421000       5.01239000       4.14499000      -0.05108600       0.09247900      -0.02211100
Zr       8.69561000       2.85124000       1.49243000       0.05020500      -0.02226600      -0.00222700
Zr       6.00749000       2.39513000       3.73550000      -0.11054200      -0.01227600      -0.01290100
Zr       0.80884000       7.63972000       3.76168000       0.09677400      -0.06067500      -0.03096000
Zr       3.49902000       8.09883000       1.51337000       0.08561000      -0.08532700       0.19039000
Zr       3.06489000      10.26826000       4.17751000       0.13949000      -0.19649000      -0.07920400
Zr       1.24707000       5.47032000       1.10607000       0.06565300       0.06275600       0.08198500
Zr       5.56580000       0.22993000       6.38915000      -0.00850500      -0.08138800      -0.08869700
Zr       7.38440000       5.01701000       9.44992000       0.05874400       0.05846800       0.06366300
Zr       7.81915000       2.85316000       6.80133000       0.04322400      -0.04111800      -0.03366700
Zr       5.13119000       2.39667000       9.03979000      -0.02524700      -0.05318400       0.03023800
Zr       2.63516000       8.09458000       6.82303000       0.04932600      -0.03510800      -0.08045200
Zr      -0.06273000       2.39498000       9.06732000       0.00459800      -0.01886000       0.00927400
Zr       2.63048000       2.85183000       6.82587000       0.10025500       0.12098900      -0.05060800
Zr       8.26035000      10.26340000       4.14552000      -0.04376000      -0.07945500      -0.00296300
Zr       1.24697000       0.22955000       1.10603000       0.03175000      -0.04266000       0.02669400
