95
Lattice="10.381444 0.0 -0.053824 0.0 10.490337 0.0 -1.746774 0.0 10.614441" Properties=species:S:1:pos:R:3:forces:R:3 energy=-909.88750067 stress="-2.46394 -0.06061 0.23472 -0.06061 -1.20322 0.67758 0.23472 0.67758 -2.60951" pbc="T T T"
O        0.61499000       9.14274000      10.47547000      -0.03252100       0.02280100      -0.03941000
O        4.35233000       1.71553000       7.13178000      -0.05739800       0.09005600      -0.00967000
O        6.68055000       3.89506000       5.13910000       0.07753500      -0.08971800       0.01734300
O        8.02038000       1.34677000       0.08639000       0.02011900       0.02410500      -0.02161300
O        7.58329000       1.27555000       2.74039000       0.01304300       0.04664200      -0.00383600
O        7.11700000       3.96783000       2.48522000       0.04160900      -0.06031300       0.00363000
O        4.78756000       0.90510000       4.47752000       0.02593500       0.04620700      -0.00690400
O        9.91061000       4.33923000       0.74832000      -0.05356200      -0.02605400      -0.02622600
O        9.47289000       3.52911000       3.40147000      -0.00384900      -0.00802400      -0.00064500
O        5.22479000       1.71683000       1.82601000      -0.00004300       0.03409700       0.02873700
O        7.11609000       6.59599000       5.37843000      -0.32451300       0.03830200      -0.04445700
O        1.95983000       6.58981000       5.41649000      -0.03587200      -0.01165600       0.03793700
O        1.51956000       6.52077000       8.07400000      -0.00639000      -0.02070400      -0.00790200
O        1.05122000       9.21469000       7.82072000      -0.00277100       0.01520900      -0.01597900
O       -1.27368000       6.15213000       9.81334000      -0.03990800      -0.03714500      -0.02281800
O        3.84568000       9.58555000       6.08112000       0.00506700       0.06111500       0.03504500
O        8.60127000       3.52886000       8.70893000      -0.00196400       0.02577200      -0.00094900
O        9.03799000       4.34058000       6.05430000      -0.04364500      -0.01164300       0.00717300
O        3.91476000       0.90519000       9.78601000       0.03926400       0.04113800      -0.03532300
O        6.24392000       3.96132000       7.79590000       0.03256600      -0.12393600       0.08115300
O        6.71498000       6.52630000       8.05054000       0.11287100       0.02581700       0.07679900
O        6.24170000       9.21472000       7.79326000       0.00197100       0.00460100       0.01360700
O        3.91506000       6.15238000       9.78694000       0.01533000       0.00635500      -0.00634400
O        9.03627000       9.58359000       6.05483000      -0.00925400      -0.00665900       0.02058800
O        8.60038000       8.77413000       8.70812000      -0.02093500       0.02971800      -0.00018400
O        4.35391000       6.95829000       7.12001000       0.03691600       0.03077500      -0.06259900
O        6.67608000       9.13927000       5.13652000       0.06353200       0.09047300       0.05777700
O        3.40880000       8.77392000       8.73554000       0.04271900      -0.04129800      -0.02339700
O        8.01935000       6.59259000       0.08797000      -0.00046900      -0.02818800      -0.00177600
O        7.11784000       9.21714000       2.48357000       0.09925900       0.09165600      -0.06833400
O        9.91066000       9.58358000       0.74762000       0.01186000       0.01877600      -0.03110500
O        9.47364000       8.77351000       3.40154000      -0.02025000       0.02763200       0.00265600
O        5.22253000       6.96226000       1.84432000       0.02258300      -0.19225100       0.09148500
O        5.80424000       3.89866000      10.44860000      -0.00065700       0.00026600      -0.00926700
O        7.14647000       1.34598000       5.39270000      -0.00432500       0.00899100       0.01548700
O        6.71021000       1.27349000       8.04697000      -0.00073500      -0.01107800      -0.00160300
O        7.57869000       6.52465000       2.74276000       0.07327200      -0.07476900      -0.00662200
O       -0.83854000       6.96146000       7.15867000      -0.03471500      -0.00689100      -0.01601400
O        5.80439000       9.14233000      10.44723000       0.01667800      -0.00140000      -0.04338200
O       -1.27486000       0.90606000       9.81334000      -0.00778800       0.00881400      -0.01371600
O        2.39380000       1.27453000       2.76696000      -0.01700100       0.02616500       0.00086900
O        1.92398000       3.96843000       2.50909000      -0.07481600      -0.08352200      -0.06141600
O       -0.40226000       0.90582000       4.50574000       0.03357700       0.03563500      -0.00828200
O        1.95702000       1.34554000       5.41918000       0.02421800       0.02641700       0.00607700
O        0.61478000       3.89850000      10.47448000       0.00612500      -0.01145700      -0.03501700
O        1.05106000       3.97057000       7.82100000       0.02633200      -0.02728800      -0.01480500
O        1.49186000       3.89894000       5.16799000      -0.00898400      -0.09448700       0.10120800
O        3.85623000       4.36302000       6.06205000      -0.08595100       0.01082700      -0.03427000
O        3.40823000       3.52944000       8.73541000       0.02722500      -0.02180100      -0.08414500
O        0.03671000       6.96133000       1.85291000       0.02381600      -0.00523500      -0.00324900
O        4.29200000       8.75657000       3.43503000      -0.16272700       0.00514700       0.18020600
O        4.71908000       4.33936000       0.77509000      -0.00411200      -0.02230300      -0.02009400
O        4.28151000       3.54214000       3.43301000       0.12494000       0.02615700      -0.01963100
O        0.03564000       1.71569000       1.85224000      -0.02219100       0.02290400       0.01327600
O       -0.83765000       1.71544000       7.15935000      -0.03068100       0.03313400       0.00849200
O        4.71781000       9.58083000       0.77713000       0.04486600       0.04792500      -0.01570600
O       -0.40221000       6.15275000       4.50601000      -0.08639400      -0.04823800       0.03034900
O        1.92656000       9.21349000       2.51365000       0.01622600       0.04936700      -0.00625500
O        2.40273000       6.52148000       2.77282000       0.02989300       0.01027300       0.03899900
O        2.83076000       6.59333000       0.11453000      -0.01445900      -0.02540200      -0.03813400
O        1.48820000       9.14302000       5.16575000      -0.00820000       0.01852400       0.01374800
O        2.82981000       1.34684000       0.11351000      -0.01175300       0.01112200      -0.01744300
O        1.52000000       1.27534000       8.07397000       0.02878800       0.06891000      -0.04984400
Zr       0.37458000       0.22956000       6.41467000      -0.02900700      -0.07132300       0.00941900
Zr       2.19558000       5.01553000       9.47964000      -0.00398200       0.09816900       0.05389900
Zr       7.38589000      10.26284000       9.45318000       0.00004300      -0.02342300       0.02225300
Zr       6.00926000       7.63642000       3.73864000      -0.12030900      -0.10998500       0.02735700
Zr       7.82161000       8.09673000       6.80507000      -0.05005200      -0.01144000      -0.10341200
Zr       5.13353000       7.63841000       9.04002000      -0.06735900       0.00776100       0.01255100
Zr       0.81220000       2.39570000       3.75999000      -0.00004000      -0.00822400      -0.06244300
Zr       3.50392000       2.85094000       1.51755000       0.03057600       0.04000600       0.07258400
Zr       3.06067000       5.01011000       4.18080000       0.03785600       0.16878500      -0.08765200
Zr       5.56534000       5.46755000       6.39825000      -0.04709200       0.08884100      -0.10252100
Zr       8.69616000       8.09900000       1.49251000      -0.03068100      -0.01014900       0.04531100
Zr      -0.06281000       7.63925000       9.06757000       0.06540300      -0.00233800       0.01000200
Zr       6.44186000       5.46535000       1.08170000      -0.15386700       0.18249000       0.11922700
Zr       2.19586000      10.26335000       9.47907000       0.02998800      -0.07180700       0.03016400
Zr       0.37397000       5.47149000       6.41464000       0.01089200       0.09645900      -0.03888800
Zr       6.44150000       0.22980000       1.07925000      -0.08415500      -0.05888200       0.03589400
Zr       8.25410000       5.01230000       4.14497000      -0.04989900       0.09597000      -0.02205800
Zr       8.69559000       2.85125000       1.49242000       0.05147800      -0.02282300      -0.00213400
Zr       6.00759000       2.39515000       3.73553000      -0.11457600      -0.01288800      -0.01389000
Zr       0.80879000       7.63972000       3.76170000       0.09954500      -0.06178300      -0.03195600
Zr       3.49889000       8.09889000       1.51325000       0.08951900      -0.08784200       0.19611800
Zr       3.06481000      10.26838000       4.17760000       0.14357600      -0.20225700      -0.08228300
Zr       1.24705000       5.47026000       1.10605000       0.06725800       0.06530500       0.08379300
Zr       5.56580000       0.22997000       6.38919000      -0.00877600      -0.08353100      -0.09108200
Zr       7.38436000       5.01702000       9.44985000       0.06046900       0.05962200       0.06613300
Zr       7.81908000       2.85320000       6.80136000       0.04547500      -0.04266200      -0.03492500
Zr       5.13124000       2.39671000       9.03976000      -0.02668800      -0.05496000       0.03122900
Zr       2.63522000       8.09455000       6.82295000       0.04899000      -0.03505700      -0.08056500
Zr      -0.06275000       2.39499000       9.06731000       0.00521000      -0.01939400       0.00982600
Zr       2.63044000       2.85185000       6.82585000       0.10276700       0.12267800      -0.05117600
Zr       8.26036000      10.26343000       4.14550000      -0.04476100      -0.08165000      -0.00270700
Zr       1.24694000       0.22957000       1.10601000       0.03289500      -0.04403300       0.02765700
