95
Lattice="10.381444 0.0 -0.053824 0.0 10.490337 0.0 -1.746774 0.0 10.614441" Properties=species:S:1:pos:R:3:forces:R:3 energy=-909.92399599 stress="-1.94297 -0.17547 0.34546 -0.17547 -0.96564 0.59464 0.34546 0.59464 -2.54252" pbc="T T T"
O        0.61370000       9.14291000      10.47420000       0.02229600       0.01618200      -0.00554400
O        4.34979000       1.72208000       7.12760000       0.06308600       0.01960200      -0.02116200
O        6.68874000       3.88681000       5.14020000      -0.01090800      -0.00762200       0.01585200
O        8.02145000       1.34676000       0.08535000      -0.00024600       0.00446600       0.00045100
O        7.58342000       1.27868000       2.74108000      -0.00554200       0.03736400      -0.00991100
O        7.12034000       3.96444000       2.48479000      -0.01668300       0.00193600      -0.00494000
O        4.78734000       0.90633000       4.47531000       0.02025100       0.01160500      -0.02106300
O        9.91033000       4.34034000       0.74707000      -0.01760200      -0.03032900       0.01447500
O        9.47143000       3.53138000       3.40265000       0.01228100      -0.01620600      -0.02072800
O        5.22347000       1.71967000       1.82883000       0.00258500      -0.00890300       0.00080600
O        7.06634000       6.60303000       5.36641000      -0.01908800      -0.00143800       0.04293100
O        1.95771000       6.58836000       5.41631000      -0.02998600      -0.01325400      -0.01266700
O        1.51955000       6.52059000       8.07229000      -0.01028700      -0.00098000      -0.01085900
O        1.05315000       9.21371000       7.81936000       0.02013600       0.03261000      -0.02301900
O       -1.27238000       6.15134000       9.81290000       0.00483800      -0.01698600       0.01655200
O        3.84464000       9.59068000       6.08420000       0.01880300       0.04397700       0.00823300
O        8.60325000       3.53178000       8.70943000       0.03787000      -0.02079200      -0.01183400
O        9.03503000       4.34390000       6.05375000      -0.05868400      -0.00999500       0.01806000
O        3.91523000       0.90458000       9.78419000       0.01294300       0.00495600      -0.00013600
O        6.24684000       3.94929000       7.80208000      -0.00888400       0.03454700      -0.02401400
O        6.72765000       6.53250000       8.05744000      -0.00316500      -0.05648500      -0.01061300
O        6.24120000       9.21353000       7.79280000      -0.00794700       0.01834300      -0.01708500
O        3.91574000       6.15479000       9.78825000      -0.01059500       0.00383500       0.03846700
O        9.03396000       9.58094000       6.05662000       0.04068000       0.04684300      -0.00902300
O        8.60052000       8.77510000       8.70613000      -0.02120200       0.03763400      -0.01619100
O        4.35854000       6.96219000       7.10804000       0.06564000       0.01064500       0.00548900
O        6.68022000       9.14514000       5.13898000      -0.01058400       0.02831300      -0.02906200
O        3.41250000       8.76840000       8.73202000      -0.02369300       0.02777500       0.00102500
O        8.01684000       6.59163000       0.09158000      -0.01671600      -0.00593200       0.04460300
O        7.12784000       9.22552000       2.47596000      -0.01555300       0.00750800       0.00838500
O        9.91173000       9.58292000       0.74635000       0.00598800       0.00895000      -0.00715100
O        9.47525000       8.77263000       3.40193000      -0.00408800       0.01841800       0.01235200
O        5.21721000       6.94509000       1.86532000      -0.05426100      -0.06749600       0.06317700
O        5.80275000       3.89989000      10.44917000      -0.00078800      -0.03453700       0.01870100
O        7.14494000       1.34403000       5.39310000       0.01098900       0.00086600      -0.00112500
O        6.70927000       1.26885000       8.04609000      -0.01265000       0.00022300      -0.00473400
O        7.58312000       6.52116000       2.74400000      -0.00900800      -0.00599300       0.03053200
O       -0.84349000       6.96187000       7.15603000      -0.02864200      -0.01042200      -0.02471000
O        5.80456000       9.14016000      10.44340000       0.00485800       0.02496000      -0.00507400
O       -1.27543000       0.90579000       9.81347000       0.00863300       0.02960400      -0.01066900
O        2.39436000       1.27477000       2.76673000       0.01223500       0.00936700      -0.00551300
O        1.91663000       3.96221000       2.50165000       0.00521300      -0.00008700       0.03590200
O       -0.40122000       0.90670000       4.50494000      -0.01166800      -0.00219200       0.01360300
O        1.96025000       1.34596000       5.41850000      -0.01353000      -0.00353400      -0.00278500
O        0.61668000       3.89956000      10.47248000       0.00531600      -0.02497800      -0.01301400
O        1.05391000       3.97161000       7.81933000      -0.01107500      -0.00056700       0.00294400
O        1.49410000       3.89282000       5.17642000      -0.00881400      -0.00030200      -0.05256800
O        3.85280000       4.37837000       6.04812000      -0.04656700      -0.04749000       0.05080100
O        3.40902000       3.53230000       8.72765000       0.06268500       0.01940300      -0.02200400
O        0.04192000       6.96118000       1.85489000       0.01750700      -0.00622000       0.00252500
O        4.27990000       8.74438000       3.45620000      -0.02017500      -0.06525600       0.05719000
O        4.71906000       4.33912000       0.77364000      -0.00333100      -0.02463200      -0.00117700
O        4.29187000       3.55526000       3.43218000       0.03281400       0.02311300      -0.06211300
O        0.03589000       1.71527000       1.85259000      -0.03178200       0.01716400       0.00127600
O       -0.83917000       1.71630000       7.15986000       0.00079500      -0.00800100       0.00284000
O        4.71874000       9.57877000       0.78015000       0.03540600      -0.00581400       0.03961000
O       -0.40948000       6.15249000       4.50769000      -0.04183400       0.00671900       0.00522800
O        1.93159000       9.21438000       2.51338000       0.01764300       0.01599500      -0.01306600
O        2.41115000       6.52520000       2.77791000      -0.00991000      -0.01289900      -0.01738600
O        2.83131000       6.59325000       0.11461000       0.01452600       0.00334700       0.04317600
O        1.48881000       9.14148000       5.16477000       0.01203000       0.00016000      -0.00929300
O        2.82954000       1.34714000       0.11324000       0.01296900       0.01525900      -0.01213600
O        1.52340000       1.27970000       8.07044000      -0.00748000      -0.00311800       0.00286600
Zr       0.37369000       0.23026000       6.41518000       0.06256800      -0.05479300      -0.02394100
Zr       2.19494000       5.01734000       9.48100000      -0.01142900       0.04870400      -0.02339700
Zr       7.38599000      10.26392000       9.45352000       0.01928300      -0.08785700      -0.01492400
Zr       6.00132000       7.62346000       3.74780000      -0.03014800      -0.00072000       0.03962100
Zr       7.81640000       8.09773000       6.80175000      -0.01990200      -0.00419000       0.02688300
Zr       5.13330000       7.63938000       9.04115000       0.02328500      -0.01564700      -0.01859400
Zr       0.81160000       2.39323000       3.75765000       0.04389300       0.00286000       0.05199300
Zr       3.50512000       2.85261000       1.52155000      -0.03149100       0.01727300      -0.02672500
Zr       3.06212000       5.01838000       4.17693000      -0.00259300       0.03598500      -0.03237800
Zr       5.56136000       5.46596000       6.39573000      -0.03345300      -0.00802700       0.04402200
Zr       8.69469000       8.10094000       1.49355000       0.04032600      -0.01836000       0.00189500
Zr      -0.06121000       7.64015000       9.06647000       0.01919800       0.01616700       0.00527900
Zr       6.43462000       5.47044000       1.09076000       0.04621000      -0.00874200      -0.05467500
Zr       2.19793000      10.26249000       9.47716000      -0.02566300      -0.08328200      -0.00885400
Zr       0.37122000       5.47318000       6.41387000       0.00198600       0.03201600       0.01046000
Zr       6.43907000       0.23152000       1.08060000      -0.01056600      -0.04113100      -0.00026700
Zr       8.24854000       5.00997000       4.14248000       0.07394300      -0.00299100      -0.01577600
Zr       8.69772000       2.84964000       1.49042000      -0.00244700       0.02548000       0.01725400
Zr       6.00368000       2.39459000       3.73529000       0.01212800      -0.00279400       0.00047800
Zr       0.81182000       7.63574000       3.76081000      -0.03222200       0.01677100       0.02353100
Zr       3.50380000       8.09372000       1.52703000      -0.06001800      -0.00893500      -0.05630100
Zr       3.07273000      10.26009000       4.17446000      -0.09314000       0.02729500       0.03309800
Zr       1.24802000       5.46965000       1.10874000       0.03568300       0.06339600      -0.04287800
Zr       5.56681000       0.22933000       6.38542000      -0.01679800      -0.02186300       0.03129400
Zr       7.38747000       5.01705000       9.45527000      -0.00702700       0.05505500      -0.01792300
Zr       7.82204000       2.84930000       6.80060000      -0.00234500       0.02594600       0.01298900
Zr       5.13290000       2.39515000       9.04169000      -0.02968200       0.04121300      -0.04599600
Zr       2.64010000       8.09318000       6.81507000      -0.03979200       0.00043100       0.02701000
Zr      -0.06243000       2.39413000       9.06565000       0.04898000       0.03017000       0.01674700
Zr       2.63749000       2.86150000       6.82069000      -0.02719400      -0.00724500      -0.02495000
Zr       8.25863000      10.26302000       4.14474000       0.02044600      -0.06375900      -0.01098400
Zr       1.24831000       0.23054000       1.10565000       0.04993400      -0.07765700      -0.00967300
