95
Lattice="10.381444 0.0 -0.053824 0.0 10.490337 0.0 -1.746774 0.0 10.614441" Properties=species:S:1:pos:R:3:forces:R:3 energy=-909.93357618 stress="-2.05799 -0.07162 0.36806 -0.07162 -1.00914 0.58961 0.36806 0.58961 -2.47748" pbc="T T T"
O        0.61566000       9.14338000      10.47194000       0.00728700       0.00239800      -0.00241600
O        4.35605000       1.72864000       7.12228000       0.01747300       0.01858000      -0.01680300
O        6.68935000       3.88485000       5.14253000      -0.02301000      -0.00290700      -0.02137000
O        8.02150000       1.34677000       0.08495000      -0.00934700      -0.00502900       0.00073400
O        7.58321000       1.28325000       2.74087000       0.00372100      -0.01239100       0.01014300
O        7.11895000       3.96554000       2.48380000       0.00810400      -0.01899300       0.01025900
O        4.78717000       0.90621000       4.47193000       0.01541900       0.00688100      -0.00356000
O        9.91060000       4.34041000       0.74744000      -0.00293400      -0.00359500       0.00906200
O        9.47378000       3.53047000       3.40161000      -0.01109200       0.00350100       0.00265200
O        5.22231000       1.71882000       1.82883000       0.00436800      -0.01350700      -0.00386200
O        7.05047000       6.60544000       5.37120000       0.04702300      -0.01000600       0.02568600
O        1.95186000       6.58728000       5.41531000       0.00740700       0.00457800      -0.00586200
O        1.51728000       6.52259000       8.07054000      -0.00044300       0.00479300       0.00892100
O        1.05636000       9.21534000       7.81664000       0.00435100      -0.00891800       0.00151100
O       -1.26893000       6.15201000       9.81400000      -0.01074500      -0.00009700       0.00158200
O        3.84267000       9.59563000       6.08789000       0.00941800       0.03755400       0.01381600
O        8.60754000       3.53308000       8.70909000      -0.01576800       0.00498100      -0.01208400
O        9.02937000       4.34675000       6.05613000      -0.00935900      -0.00952600      -0.00518300
O        3.91456000       0.90324000       9.78251000       0.01712300       0.01306700      -0.00239800
O        6.24648000       3.95227000       7.80160000       0.00747500      -0.02431200       0.01469300
O        6.73074000       6.52795000       8.05911000      -0.02761300       0.00867100       0.01583700
O        6.23992000       9.21293000       7.79129000       0.00001200       0.00098300      -0.01061400
O        3.91432000       6.15811000       9.79259000       0.00206800       0.02871200       0.00878600
O        9.03811000       9.58370000       6.05691000      -0.04943100      -0.03954200      -0.02149300
O        8.60152000       8.77685000       8.70268000      -0.01767900       0.01939900      -0.01138500
O        4.36630000       6.96805000       7.10737000      -0.00423600       0.00060100       0.00860000
O        6.68069000       9.14954000       5.13656000      -0.00613000      -0.00014000      -0.00137700
O        3.41104000       8.76828000       8.73045000       0.02351200      -0.01633900       0.01735300
O        8.01494000       6.59133000       0.09713000       0.00884200      -0.00286500      -0.00812400
O        7.12983000       9.22690000       2.47490000      -0.01424700      -0.00363900       0.01310700
O        9.91351000       9.58194000       0.74522000       0.00626800      -0.01054500      -0.00557100
O        9.47770000       8.77257000       3.40278000      -0.01942500       0.02185700       0.00130600
O        5.20629000       6.92934000       1.88011000      -0.01064000      -0.04361200       0.02700300
O        5.80264000       3.89796000      10.45073000       0.00127200      -0.00114400      -0.01243500
O        7.14620000       1.34312000       5.39363000       0.00325600      -0.00016900      -0.01105800
O        6.70743000       1.26634000       8.04587000       0.00338000       0.01538600      -0.00474000
O        7.58377000       6.52007000       2.74834000      -0.02370600       0.01439100       0.01536400
O       -0.84827000       6.96113000       7.15369000      -0.01295900       0.00734100       0.00360500
O        5.80572000       9.14031000      10.44055000       0.00904300       0.00235700       0.00567700
O       -1.27412000       0.90815000       9.81264000      -0.00961000      -0.00907200       0.00442300
O        2.39583000       1.27530000       2.76647000       0.00611000       0.01536400      -0.00036200
O        1.91513000       3.96238000       2.50364000       0.02838000       0.01134500      -0.01643400
O       -0.40087000       0.90661000       4.50674000      -0.01230900       0.00182000      -0.02169100
O        1.96002000       1.34480000       5.41753000       0.02295800       0.00464500      -0.01599200
O        0.61868000       3.89912000      10.46994000       0.00485700       0.00927400       0.01484800
O        1.05374000       3.97364000       7.81869000       0.01111400      -0.00885900      -0.00818800
O        1.49287000       3.89220000       5.17202000      -0.00438600       0.01248100      -0.02692500
O        3.84424000       4.37652000       6.05160000       0.01176700       0.02402200      -0.01772700
O        3.41513000       3.53967000       8.72179000       0.01801100       0.01364100      -0.01058700
O        0.04577000       6.96139000       1.85610000      -0.02483700       0.01037500      -0.00150800
O        4.26983000       8.73187000       3.47081000      -0.01881900      -0.01966900       0.01660600
O        4.71860000       4.33689000       0.77035000       0.02066600      -0.01085600      -0.03244500
O        4.29778000       3.56491000       3.42316000       0.02834400       0.00356400      -0.00867000
O        0.03520000       1.71435000       1.85299000       0.00778500      -0.01473100      -0.00008200
O       -0.83702000       1.71386000       7.15965000      -0.01960600       0.02956500       0.00174900
O        4.72101000       9.57426000       0.78607000       0.02565900      -0.00769500       0.00753600
O       -0.41548000       6.15565000       4.50954000      -0.02255900       0.00374400      -0.00103400
O        1.93473000       9.21570000       2.51158000      -0.01050700       0.01012000      -0.00279400
O        2.41015000       6.52575000       2.77618000      -0.02963200      -0.01432800       0.00416900
O        2.83339000       6.59448000       0.11796000       0.01233800      -0.00020200      -0.01471600
O        1.49010000       9.14024000       5.16423000       0.00035200       0.00638600      -0.00632000
O        2.83143000       1.34782000       0.11149000       0.01289600      -0.00138100       0.00938600
O        1.52458000       1.27899000       8.06971000       0.02502600      -0.00641100       0.01113400
Zr       0.37727000       0.22854000       6.41262000      -0.01360200      -0.00505800       0.03109600
Zr       2.19605000       5.01929000       9.47994000      -0.00522400       0.01127500      -0.02127600
Zr       7.38700000      10.26111000       9.45254000       0.03177200       0.00608100       0.01874100
Zr       5.99291000       7.61910000       3.75519000      -0.01633000      -0.03581600      -0.00768200
Zr       7.81127000       8.09930000       6.80010000       0.05132200      -0.01376700      -0.00070400
Zr       5.13578000       7.63850000       9.03971000      -0.00008400       0.00120800       0.02105600
Zr       0.81472000       2.39225000       3.76046000      -0.00247700      -0.00522900      -0.02448900
Zr       3.50378000       2.85445000       1.52011000      -0.00124500       0.00231700      -0.01533100
Zr       3.06496000       5.02258000       4.17064000      -0.03192500      -0.01804900       0.03575900
Zr       5.55604000       5.46096000       6.39841000       0.00238400       0.00733900       0.01139400
Zr       8.69707000       8.10015000       1.49562000       0.00223100      -0.00913100      -0.01024500
Zr      -0.06089000       7.64228000       9.06531000      -0.00527500      -0.00716800      -0.02806400
Zr       6.43739000       5.46809000       1.08985000      -0.01018700       0.01382400       0.01754600
Zr       2.19911000      10.25781000       9.47677000      -0.01748900       0.01361500      -0.01451100
Zr       0.36814000       5.47433000       6.41380000       0.00427200       0.00997200       0.02587200
Zr       6.43877000       0.23171000       1.08119000       0.00448100      -0.00895200      -0.02160800
Zr       8.25378000       5.00561000       4.13951000      -0.02479400       0.01665500       0.03055900
Zr       8.69706000       2.84863000       1.49130000       0.04310000       0.00066200      -0.03071000
Zr       6.00544000       2.39323000       3.73505000      -0.01969600       0.02697100      -0.00502700
Zr       0.80817000       7.63540000       3.76317000       0.04166900       0.00120300      -0.00054500
Zr       3.50290000       8.09112000       1.52852000      -0.01533900      -0.01035300       0.01024000
Zr       3.06854000      10.26315000       4.17655000      -0.01391600      -0.02202800      -0.00534400
Zr       1.25140000       5.47227000       1.10635000      -0.01658100      -0.01200200      -0.00029100
Zr       5.56747000       0.23035000       6.38605000      -0.02125100      -0.01093300      -0.00774700
Zr       7.38775000       5.01745000       9.45539000       0.04587500      -0.01151900       0.00628300
Zr       7.82206000       2.84790000       6.80162000       0.03919900       0.01051900       0.02229200
Zr       5.13150000       2.39696000       9.03794000      -0.01137000      -0.00276100       0.01728800
Zr       2.64068000       8.09361000       6.81463000      -0.02202600      -0.00687200      -0.00215600
Zr      -0.05787000       2.39511000       9.06642000      -0.00067500      -0.02124900      -0.03137100
Zr       2.63727000       2.86219000       6.81682000      -0.06404900      -0.00997100       0.02481300
Zr       8.25801000      10.25996000       4.14328000       0.04348300       0.02154500       0.02113300
Zr       1.25223000       0.22825000       1.10401000      -0.01831200       0.01577800      -0.00671200
