95
Lattice="10.381444 0.0 -0.053824 0.0 10.490337 0.0 -1.746774 0.0 10.614441" Properties=species:S:1:pos:R:3:forces:R:3 energy=-909.93587849 stress="-1.92729 -0.09142 0.41034 -0.09142 -1.06871 0.63233 0.41034 0.63233 -2.43357" pbc="T T T"
O        0.61647000       9.14351000      10.47068000       0.00635900       0.00359300       0.00383700
O        4.35847000       1.73195000       7.12012000      -0.01812100       0.02399900      -0.01282000
O        6.68783000       3.88454000       5.14203000      -0.00893200       0.00596700      -0.00876700
O        8.02105000       1.34670000       0.08474000       0.00641600      -0.00677200       0.00492300
O        7.58356000       1.28383000       2.74137000       0.00622300      -0.01477900      -0.00337700
O        7.11899000       3.96495000       2.48389000       0.02136500      -0.01109500       0.00149800
O        4.78751000       0.90628000       4.47085000      -0.00264400      -0.00393900      -0.00754200
O        9.91051000       4.34050000       0.74777000       0.01851200      -0.00403800       0.01279000
O        9.47454000       3.52980000       3.40144000      -0.01755300       0.01525800       0.00085800
O        5.22207000       1.71767000       1.82830000      -0.00580300      -0.00247600      -0.00810000
O        7.05014000       6.60532000       5.37460000       0.04020500      -0.01908200       0.00058100
O        1.95052000       6.58719000       5.41485000       0.00581700       0.00907000       0.00333700
O        1.51620000       6.52376000       8.07074000       0.00647200      -0.00710800      -0.01098300
O        1.05717000       9.21534000       7.81606000      -0.00312700      -0.00342900      -0.00366700
O       -1.26849000       6.15266000       9.81404000      -0.00133200      -0.00243800       0.00366900
O        3.84189000       9.59861000       6.08991000      -0.01915200       0.01749500       0.00498000
O        8.60761000       3.53417000       8.70854000       0.03099000      -0.03006200      -0.00776000
O        9.02798000       4.34724000       6.05688000       0.01346800      -0.00194800      -0.00650800
O        3.91499000       0.90365000       9.78146000      -0.00657400      -0.00394400       0.00435700
O        6.24687000       3.95217000       7.80247000       0.01822300      -0.02844600       0.00509300
O        6.72971000       6.52688000       8.06076000      -0.01438000       0.00913000       0.01309200
O        6.23962000       9.21251000       7.79069000       0.01171500       0.00765100      -0.01120300
O        3.91389000       6.16081000       9.79396000      -0.01426500       0.00822500       0.01897200
O        9.03727000       9.58250000       6.05601000      -0.00626200      -0.01292700      -0.01105600
O        8.60155000       8.77786000       8.70120000       0.00076200       0.01694900      -0.00649400
O        4.36786000       6.96984000       7.10806000      -0.03209400      -0.00458300      -0.00418700
O        6.68028000       9.15011000       5.13555000      -0.00618800      -0.01020400       0.00281400
O        3.41162000       8.76759000       8.73118000      -0.00408000       0.00009400       0.01052600
O        8.01545000       6.59109000       0.09760000      -0.00138000      -0.00754300       0.01380200
O        7.12954000       9.22643000       2.47556000      -0.01652800       0.00192300      -0.00336300
O        9.91465000       9.58102000       0.74443000       0.01329700      -0.00184500      -0.00196300
O        9.47748000       8.77370000       3.40292000       0.01149300      -0.00002400       0.00045300
O        5.20274000       6.92279000       1.88579000      -0.02628900      -0.02398300       0.00829300
O        5.80298000       3.89757000      10.45028000       0.00778200       0.00064300      -0.00424900
O        7.14709000       1.34315000       5.39339000       0.00405500       0.00673700      -0.00156200
O        6.70722000       1.26666000       8.04587000       0.01463800       0.01030500       0.00400800
O        7.58218000       6.52094000       2.75061000      -0.01338900      -0.00159000       0.00186200
O       -0.84977000       6.96117000       7.15376000       0.01614600      -0.00910200       0.00255900
O        5.80678000       9.14028000      10.43989000       0.01024500       0.00763900       0.01784500
O       -1.27404000       0.90829000       9.81251000       0.01169800       0.01368400       0.00145500
O        2.39630000       1.27628000       2.76658000       0.00616900       0.00956300      -0.01056200
O        1.91663000       3.96350000       2.50352000       0.01428800      -0.00449400      -0.02646400
O       -0.40084000       0.90691000       4.50636000       0.00916000       0.00389200      -0.00258700
O        1.96097000       1.34452000       5.41636000       0.00320100       0.00590300       0.00419000
O        0.61948000       3.89965000      10.46977000      -0.00889400      -0.00299400       0.00165300
O        1.05407000       3.97373000       7.81816000       0.00024200      -0.01204000      -0.00731300
O        1.49203000       3.89308000       5.16882000      -0.00928700       0.00108200       0.00908500
O        3.84282000       4.37732000       6.05185000      -0.01399000       0.00617100      -0.02004000
O        3.41768000       3.54277000       8.71973000      -0.00978500       0.01118800      -0.01351700
O        0.04517000       6.96218000       1.85607000      -0.00759300      -0.00892700       0.00409500
O        4.26657000       8.72691000       3.47545000      -0.03432700      -0.00347200      -0.00360700
O        4.71944000       4.33563000       0.76710000       0.02313800      -0.01312800      -0.02741900
O        4.30015000       3.56821000       3.42023000       0.01028600       0.00131700      -0.00220100
O        0.03584000       1.71297000       1.85328000       0.00158900      -0.00437900      -0.00940200
O       -0.83672000       1.71437000       7.15950000       0.00522800       0.01399900       0.01286300
O        4.72275000       9.57240000       0.78782000       0.00391900      -0.01607800      -0.00168100
O       -0.41791000       6.15692000       4.51035000       0.00071700       0.00954800       0.00293100
O        1.93445000       9.21676000       2.51083000      -0.00491000       0.00169500      -0.00008100
O        2.40775000       6.52486000       2.77590000      -0.02437200      -0.00382100       0.00459700
O        2.83453000       6.59485000       0.11739000       0.00198200      -0.00436900      -0.00295600
O        1.49023000       9.14061000       5.16419000      -0.00599200      -0.00011200      -0.00299900
O        2.83269000       1.34771000       0.11121000      -0.00066500       0.00194900      -0.00194700
O        1.52621000       1.27806000       8.07009000       0.00798900       0.01047700      -0.00269500
Zr       0.37647000       0.22784000       6.41353000      -0.00647900      -0.01078700      -0.00948300
Zr       2.19689000       5.02026000       9.47925000       0.01178500       0.00955200      -0.00515600
Zr       7.38851000      10.26188000       9.45359000      -0.02108500      -0.02459100      -0.01818700
Zr       5.98994000       7.61668000       3.75610000       0.01358300      -0.01919200       0.03589800
Zr       7.81222000       8.09923000       6.79857000      -0.02376800      -0.00708500       0.01973100
Zr       5.13621000       7.63818000       9.04021000       0.02916800       0.01738600       0.01961800
Zr       0.81530000       2.39221000       3.75888000      -0.01182600      -0.00604200       0.00093700
Zr       3.50373000       2.85521000       1.51887000       0.03118100      -0.00242700      -0.00068500
Zr       3.06384000       5.02192000       4.17093000       0.00339400      -0.01925500       0.02856600
Zr       5.55462000       5.45972000       6.40007000       0.02372500       0.01868700       0.00989400
Zr       8.69725000       8.09950000       1.49656000      -0.01685500       0.00687800      -0.01559000
Zr      -0.06121000       7.64227000       9.06351000      -0.01384700       0.01066000       0.01106200
Zr       6.43735000       5.46773000       1.09115000       0.00968900       0.00470600      -0.00432400
Zr       2.19951000      10.25771000       9.47692000       0.00437900      -0.02178300      -0.00349000
Zr       0.36744000       5.47520000       6.41445000      -0.01092400       0.00324000       0.00137000
Zr       6.43897000       0.23138000       1.08041000       0.02169200      -0.01372300       0.01375900
Zr       8.25333000       5.00559000       4.14010000      -0.03708800       0.00607000       0.02555500
Zr       8.69897000       2.84756000       1.49027000      -0.01277200       0.01543200      -0.01219900
Zr       6.00532000       2.39402000       3.73478000      -0.00532800       0.00709200      -0.00848300
Zr       0.80936000       7.63508000       3.76370000      -0.00367000       0.01194800      -0.01703500
Zr       3.50221000       8.09011000       1.52932000      -0.00424800      -0.00146400       0.00287300
Zr       3.06738000      10.26335000       4.17685000       0.01868500      -0.00895600      -0.00678700
Zr       1.25192000       5.47195000       1.10659000      -0.02530800       0.01084400      -0.00967400
Zr       5.56682000       0.23019000       6.38510000       0.01113800      -0.00334800       0.00759000
Zr       7.39012000       5.01636000       9.45508000      -0.01708500       0.01960600       0.00860600
Zr       7.82331000       2.84781000       6.80287000      -0.03064000       0.00893200      -0.01003000
Zr       5.13043000       2.39661000       9.03777000       0.02054600       0.01679400       0.00017800
Zr       2.64078000       8.09315000       6.81406000       0.01391700       0.01064800       0.01420300
Zr      -0.05699000       2.39373000       9.06533000      -0.00726600       0.01101200      -0.00175400
Zr       2.63380000       2.86136000       6.81732000       0.01628100       0.00233100      -0.00030400
Zr       8.25921000      10.26030000       4.14393000      -0.00950400       0.01984000      -0.00901600
Zr       1.25187000       0.22932000       1.10341000       0.00264800      -0.02297700       0.00041200
