95
Lattice="10.381444 0.0 -0.053824 0.0 10.490337 0.0 -1.746774 0.0 10.614441" Properties=species:S:1:pos:R:3:forces:R:3 energy=-909.93748332 stress="-1.92892 -0.1403 0.41854 -0.1403 -1.1655 0.64997 0.41854 0.64997 -2.38059" pbc="T T T"
O        0.61751000       9.14383000      10.46984000      -0.00331500      -0.00635600       0.00747800
O        4.35931000       1.73615000       7.11756000       0.01167100      -0.00976800      -0.00196000
O        6.68613000       3.88464000       5.14120000      -0.00920700       0.01203400       0.01387100
O        8.02113000       1.34627000       0.08486000       0.00988200      -0.00715500       0.00052500
O        7.58421000       1.28352000       2.74151000      -0.00149500      -0.00779800      -0.01260100
O        7.12028000       3.96389000       2.48398000       0.00847300       0.00320900      -0.01035300
O        4.78754000       0.90602000       4.46946000       0.01279100      -0.00531100      -0.00026600
O        9.91160000       4.34036000       0.74877000      -0.00125000      -0.00386000      -0.01006700
O        9.47420000       3.53014000       3.40132000      -0.02140900       0.01768200      -0.00187900
O        5.22147000       1.71662000       1.82736000       0.02065700      -0.00827500       0.00126500
O        7.05201000       6.60412000       5.37740000       0.02699500      -0.01467600       0.00069800
O        1.94966000       6.58764000       5.41471000       0.01067300       0.01058600       0.01058800
O        1.51566000       6.52430000       8.07017000       0.00524000      -0.00319700      -0.00767900
O        1.05766000       9.21518000       7.81531000      -0.01037700      -0.00440000       0.00315100
O       -1.26810000       6.15306000       9.81429000      -0.02007000      -0.00121900      -0.00514800
O        3.83994000       9.60201000       6.09190000      -0.00370700       0.01239500       0.00694300
O        8.60972000       3.53321000       8.70768000      -0.01066800       0.01212800       0.00732600
O        9.02765000       4.34759000       6.05719000      -0.00616900      -0.01112100      -0.00611800
O        3.91487000       0.90370000       9.78081000       0.00756300      -0.00270100       0.00608900
O        6.24829000       3.95050000       7.80345000       0.01237200       0.00141200      -0.00222400
O        6.72810000       6.52640000       8.06293000      -0.00230600       0.01225800       0.00352100
O        6.24007000       9.21260000       7.78955000       0.00266000       0.00154000       0.00722000
O        3.91260000       6.16345000       9.79627000       0.02170600       0.02717900       0.01222300
O        9.03651000       9.58095000       6.05467000      -0.00087400      -0.00380400       0.00060700
O        8.60176000       8.77963000       8.69961000       0.00022000       0.00447700      -0.00437100
O        4.36732000       6.97111000       7.10837000      -0.00020200      -0.02256700       0.00096200
O        6.67959000       9.14998000       5.13487000      -0.01275900      -0.01770000       0.01445000
O        3.41168000       8.76711000       8.73236000       0.01586300      -0.01054900       0.00610600
O        8.01574000       6.59045000       0.09893000      -0.00186400      -0.00290700       0.00894300
O        7.12838000       9.22618000       2.47582000      -0.00652100      -0.00210200      -0.00970400
O        9.91641000       9.58019000       0.74367000      -0.01487400      -0.01764400      -0.00977600
O        9.47815000       8.77452000       3.40306000      -0.00784900       0.00795200      -0.01590600
O        5.19808000       6.91588000       1.89113000      -0.01268400      -0.00876100       0.00961300
O        5.80376000       3.89727000      10.44972000       0.01301500       0.01153900      -0.00065100
O        7.14808000       1.34360000       5.39316000      -0.00594100       0.00177400       0.00118700
O        6.70792000       1.26747000       8.04615000       0.00528600      -0.00759700       0.00240800
O        7.58017000       6.52148000       2.75261000      -0.01157000      -0.00550300      -0.00828500
O       -0.84998000       6.96059000       7.15395000      -0.00956800       0.01119600       0.01617600
O        5.80827000       9.14073000      10.44037000       0.00406800      -0.00451500       0.00906700
O       -1.27318000       0.90933000       9.81245000      -0.01945300      -0.01447900       0.00058900
O        2.39704000       1.27763000       2.76602000       0.00635300      -0.00694900      -0.00362400
O        1.91862000       3.96411000       2.50190000       0.00516700      -0.01212000      -0.01100500
O       -0.40016000       0.90740000       4.50603000      -0.00393300      -0.01056400       0.00845000
O        1.96183000       1.34459000       5.41572000      -0.01454600       0.00240100       0.01046200
O        0.61959000       3.89987000      10.46961000       0.00028800       0.00503400      -0.00954900
O        1.05428000       3.97314000       7.81731000      -0.00334600       0.00099700      -0.00703100
O        1.49075000       3.89384000       5.16676000      -0.00384300      -0.00716000       0.01918600
O        3.84062000       4.37825000       6.05097000       0.01978800       0.01688600      -0.00858000
O        3.41912000       3.54605000       8.71718000       0.00570500      -0.00237700      -0.00407500
O        0.04436000       6.96224000       1.85630000      -0.02573100      -0.00200800      -0.00623000
O        4.26172000       8.72247000       3.47918000       0.00113400      -0.01248800      -0.01080500
O        4.72150000       4.33382000       0.76279000       0.04139200      -0.00845600      -0.01138000
O        4.30265000       3.57116000       3.41759000       0.01593000      -0.00405000       0.01092900
O        0.03643000       1.71162000       1.85293000      -0.02047700       0.01154200      -0.00965600
O       -0.83599000       1.71548000       7.16016000       0.00239700      -0.00933100      -0.01039100
O        4.72436000       9.56985000       0.78919000       0.00444800      -0.01521100      -0.00423600
O       -0.41982000       6.15860000       4.51124000      -0.00107200       0.00473400       0.00177200
O        1.93398000       9.21770000       2.51017000      -0.00043800      -0.00919700      -0.00019800
O        2.40436000       6.52394000       2.77589000      -0.00833700       0.00208400       0.00434500
O        2.83556000       6.59490000       0.11681000      -0.01208800       0.00331400       0.00402500
O        1.48997000       9.14087000       5.16401000      -0.00341700       0.00216300      -0.00098100
O        2.83365000       1.34773000       0.11077000      -0.00227800      -0.00585700       0.00088600
O        1.52793000       1.27794000       8.07018000       0.00213100       0.00169800      -0.01161700
Zr       0.37546000       0.22660000       6.41350000       0.01514800       0.01486300      -0.01670200
Zr       2.19840000       5.02162000       9.47847000      -0.02550200      -0.01082500       0.00057900
Zr       7.38831000      10.26101000       9.45326000       0.01212000       0.02457100      -0.00951300
Zr       5.98828000       7.61363000       3.75916000      -0.00522500       0.00107500       0.02080800
Zr       7.81119000       8.09885000       6.79844000       0.00198100       0.00497900       0.00135200
Zr       5.13840000       7.63896000       9.04172000      -0.02810800       0.00672800       0.01126100
Zr       0.81510000       2.39184000       3.75772000      -0.00265300       0.00920200       0.00177000
Zr       3.50562000       2.85572000       1.51785000      -0.00627800      -0.00545800      -0.01850900
Zr       3.06329000       5.02027000       4.17269000      -0.00835000       0.00562600      -0.01168400
Zr       5.55484000       5.45975000       6.40207000      -0.02196200       0.00642500      -0.00372400
Zr       8.69635000       8.09943000       1.49650000       0.01530700       0.02182100       0.02577100
Zr      -0.06231000       7.64297000       9.06282000       0.02444600       0.00372300       0.01973500
Zr       6.43799000       5.46761000       1.09188000      -0.02265500      -0.00586100      -0.00075500
Zr       2.20026000      10.25617000       9.47696000      -0.00460400       0.01032300       0.00485000
Zr       0.36611000       5.47610000       6.41492000       0.01486200      -0.00735100      -0.02070600
Zr       6.44045000       0.23031000       1.08074000      -0.00909400       0.00894700       0.01890300
Zr       8.25082000       5.00583000       4.14196000       0.02379300      -0.00476200       0.00163800
Zr       8.69955000       2.84755000       1.48883000      -0.00124800       0.00631000       0.02269300
Zr       6.00502000       2.39496000       3.73404000      -0.00590100      -0.01806800      -0.01780200
Zr       0.80987000       7.63552000       3.76312000      -0.01835900      -0.00076500       0.00266600
Zr       3.50145000       8.08920000       1.53013000      -0.00267300      -0.00973000       0.00126300
Zr       3.06761000      10.26313000       4.17673000      -0.00237900       0.01586900      -0.01005300
Zr       1.25094000       5.47243000       1.10620000       0.01898000      -0.00097100       0.00914900
Zr       5.56710000       0.22993000       6.38477000      -0.00880700       0.03139200      -0.00211700
Zr       7.39082000       5.01670000       9.45529000       0.00709300      -0.01858800       0.01309900
Zr       7.82223000       2.84819000       6.80317000       0.00389200      -0.00766600      -0.01413300
Zr       5.13083000       2.39735000       9.03751000      -0.00926500       0.00221500      -0.00649500
Zr       2.64189000       8.09345000       6.81444000      -0.01516800       0.00670400       0.00043700
Zr      -0.05666000       2.39335000       9.06449000       0.02182700       0.01752800       0.02192800
Zr       2.63223000       2.86084000       6.81755000       0.01494300       0.00277200      -0.01348700
Zr       8.25936000      10.26168000       4.14379000      -0.00845800      -0.00413800      -0.02167800
Zr       1.25184000       0.22873000       1.10296000       0.03206200       0.00462700      -0.00525900
