95
Lattice="10.381444 0.0 -0.053824 0.0 10.490337 0.0 -1.746774 0.0 10.614441" Properties=species:S:1:pos:R:3:forces:R:3 energy=-909.93846887 stress="-1.94308 -0.1926 0.41197 -0.1926 -1.24111 0.67167 0.41197 0.67167 -2.36131" pbc="T T T"
O        0.61792000       9.14369000      10.46982000      -0.00379900       0.00167500       0.01239300
O        4.36025000       1.73800000       7.11602000       0.00973500      -0.00703300       0.00334400
O        6.68470000       3.88537000       5.14145000      -0.00637300      -0.00282100       0.00347900
O        8.02173000       1.34562000       0.08498000      -0.00068100       0.00387200       0.00407500
O        7.58452000       1.28287000       2.74090000      -0.00253400      -0.00173900      -0.00560100
O        7.12154000       3.96344000       2.48348000      -0.00868900       0.00024300      -0.00417200
O        4.78822000       0.90558000       4.46866000       0.00608800      -0.00652900      -0.00360600
O        9.91223000       4.34006000       0.74884000       0.00934800      -0.00412500      -0.00405400
O        9.47278000       3.53135000       3.40116000       0.01960500      -0.00918400       0.00259400
O        5.22221000       1.71562000       1.82689000      -0.00130400       0.00768400       0.00680700
O        7.05464000       6.60260000       5.37891000       0.00298400      -0.00876300      -0.00290600
O        1.94981000       6.58849000       5.41522000       0.00547700      -0.00023000      -0.00022800
O        1.51569000       6.52437000       8.06938000       0.00575800      -0.00737500       0.00480800
O        1.05735000       9.21485000       7.81505000      -0.00229100       0.00005000       0.01277100
O       -1.26896000       6.15320000       9.81417000       0.00392300       0.01052700       0.00422600
O        3.83857000       9.60455000       6.09335000      -0.00107400       0.00985600      -0.00001300
O        8.61047000       3.53316000       8.70757000      -0.00172000       0.00657300       0.00921200
O        9.02724000       4.34718000       6.05701000       0.00524000      -0.00774400      -0.00588900
O        3.91515000       0.90356000       9.78082000       0.00057000      -0.00032900       0.00205900
O        6.24980000       3.94954000       7.80387000      -0.00039600       0.01088400      -0.00787000
O        6.72705000       6.52683000       8.06435000      -0.00062800       0.00369000      -0.00211100
O        6.24053000       9.21278000       7.78926000      -0.01046700       0.01408000       0.00491800
O        3.91297000       6.16632000       9.79824000      -0.01621100      -0.00009500       0.00701000
O        9.03606000       9.57988000       6.05393000       0.00903700       0.01305800      -0.01236700
O        8.60190000       8.78090000       8.69850000       0.01717700      -0.00667900       0.00522300
O        4.36683000       6.97056000       7.10855000      -0.00808700      -0.00930600       0.00285500
O        6.67852000       9.14892000       5.13528000      -0.00860600      -0.00470400       0.00259800
O        3.41250000       8.76631000       8.73336000      -0.01196400       0.01033000      -0.00081500
O        8.01578000       6.58990000       0.10019000      -0.00270600       0.00240300       0.01369900
O        7.12733000       9.22594000       2.47542000      -0.00651600       0.00430200       0.00734000
O        9.91663000       9.57882000       0.74274000       0.01288800       0.00334900      -0.00287200
O        9.47818000       8.77536000       3.40230000      -0.00930600       0.01646700      -0.00915300
O        5.19477000       6.91163000       1.89450000      -0.01517400       0.00020300       0.01451500
O        5.80491000       3.89773000      10.44937000       0.00169400      -0.00383500      -0.00029500
O        7.14832000       1.34397000       5.39310000      -0.00899700      -0.00358000      -0.01075100
O        6.70866000       1.26755000       8.04646000      -0.00925000       0.00070900      -0.00877900
O        7.57842000       6.52146000       2.75323000      -0.01382800      -0.00604600       0.00575700
O       -0.85049000       6.96081000       7.15491000       0.00595900      -0.00430500       0.01371500
O        5.80932000       9.14077000      10.44121000      -0.00517100      -0.00112600       0.00247100
O       -1.27367000       0.90921000       9.81246000       0.01003900       0.00180100       0.00349100
O        2.39781000       1.27803000       2.76546000       0.00402800      -0.00270800      -0.00287800
O        1.92001000       3.96376000       2.50031000       0.00500800      -0.01933700       0.00186300
O       -0.39994000       0.90713000       4.50631000      -0.00332100       0.00099700      -0.00760300
O        1.96152000       1.34479000       5.41597000      -0.00801500       0.00745300      -0.00667700
O        0.61962000       3.90023000      10.46902000       0.01536300       0.00824600      -0.00328700
O        1.05421000       3.97280000       7.81645000       0.00246000       0.00283300       0.00423600
O        1.48981000       3.89387000       5.16675000       0.00214400      -0.00836900       0.00771200
O        3.84040000       4.37965000       6.04994000       0.00559800      -0.00200500      -0.00254500
O        3.42011000       3.54772000       8.71554000      -0.00040900      -0.00038800      -0.00139400
O        0.04255000       6.96211000       1.85613000      -0.00098900      -0.01453400       0.00090800
O        4.25901000       8.71945000       3.48056000       0.00558600       0.00231200      -0.00354000
O        4.72491000       4.33234000       0.75976000      -0.00385000      -0.03680200      -0.00625500
O        4.30486000       3.57253000       3.41676000      -0.00370500      -0.00462800      -0.00042200
O        0.03566000       1.71150000       1.85218000       0.00337600       0.00315100       0.00644000
O       -0.83543000       1.71564000       7.16004000       0.00464200      -0.01132800      -0.00894400
O        4.72547000       9.56760000       0.78968000      -0.00472200      -0.00813300      -0.00582300
O       -0.42086000       6.15979000       4.51183000       0.00908500       0.00204100       0.00260000
O        1.93368000       9.21771000       2.50981000      -0.00065800      -0.00368700      -0.00173100
O        2.40200000       6.52354000       2.77613000      -0.00377600      -0.00198500       0.00078000
O        2.83546000       6.59508000       0.11671000      -0.01186200      -0.00628300       0.00369900
O        1.48962000       9.14112000       5.16385000       0.00185400       0.00592500      -0.00677000
O        2.83402000       1.34744000       0.11056000       0.00388000       0.00046800       0.00195500
O        1.52899000       1.27804000       8.06959000       0.00258900       0.00115400      -0.00244500
Zr       0.37569000       0.22667000       6.41252000      -0.00691200       0.00732400       0.00307400
Zr       2.19793000       5.02182000       9.47807000       0.00255700       0.00664500      -0.01091500
Zr       7.38869000      10.26169000       9.45245000       0.00557400       0.00940700       0.00613000
Zr       5.98722000       7.61198000       3.76212000      -0.00186400      -0.00594700      -0.00224900
Zr       7.81057000       8.09888000       6.79857000       0.01183200       0.00337600       0.01043700
Zr       5.13826000       7.63983000       9.04322000       0.00264600      -0.00312000       0.01109600
Zr       0.81478000       2.39210000       3.75722000      -0.01978900       0.00333600      -0.00612400
Zr       3.50648000       2.85569000       1.51634000       0.00400600       0.00541300      -0.00307900
Zr       3.06260000       5.01959000       4.17316000       0.00426200       0.02394100      -0.02523400
Zr       5.55393000       5.46020000       6.40299000       0.00342600       0.00595800       0.00229500
Zr       8.69657000       8.10059000       1.49774000      -0.00270600      -0.00107600      -0.00917600
Zr      -0.06168000       7.64362000       9.06358000      -0.01045700      -0.00705000      -0.00951400
Zr       6.43719000       5.46725000       1.09220000       0.01506700       0.02226500       0.00165100
Zr       2.20046000      10.25576000       9.47722000       0.01512500       0.00686400      -0.00469100
Zr       0.36612000       5.47621000       6.41406000      -0.00465700       0.01264300      -0.00086200
Zr       6.44089000       0.23013000       1.08201000       0.00663100      -0.00888600      -0.01781800
Zr       8.25053000       5.00573000       4.14318000       0.00278700       0.01017700      -0.01064300
Zr       8.69969000       2.84797000       1.48921000      -0.00571200       0.00358200      -0.00160000
Zr       6.00453000       2.39453000       3.73266000       0.01614800       0.00503700       0.00256100
Zr       0.80912000       7.63579000       3.76285000      -0.01629100      -0.00133300       0.01043500
Zr       3.50089000       8.08820000       1.53064000       0.01942200      -0.00762500       0.01065800
Zr       3.06773000      10.26382000       4.17609000      -0.00500800      -0.00942200       0.00343700
Zr       1.25128000       5.47270000       1.10642000      -0.01181000       0.01019700       0.00395700
Zr       5.56686000       0.23144000       6.38454000       0.00340900      -0.00170600       0.01029400
Zr       7.39144000       5.01602000       9.45614000      -0.00283400      -0.00083600      -0.00023200
Zr       7.82164000       2.84803000       6.80251000       0.02036100      -0.00428300       0.00267800
Zr       5.13068000       2.39796000       9.03702000       0.00800000      -0.00303000       0.01077600
Zr       2.64178000       8.09404000       6.81475000      -0.00838600       0.00222100      -0.00393500
Zr      -0.05537000       2.39415000       9.06521000      -0.01682700      -0.00324800      -0.01494500
Zr       2.63233000       2.86074000       6.81693000       0.00947400       0.00928900      -0.00683000
Zr       8.25891000      10.26230000       4.14250000      -0.01174900      -0.02929100       0.00873900
Zr       1.25355000       0.22851000       1.10244000      -0.01977500      -0.00142300      -0.00812500
