95
Lattice="10.381444 0.0 -0.053824 0.0 10.490337 0.0 -1.746774 0.0 10.614441" Properties=species:S:1:pos:R:3:forces:R:3 energy=-909.9384692 stress="-1.94179 -0.192 0.41182 -0.192 -1.23898 0.67177 0.41182 0.67177 -2.36026" pbc="T T T"
O        0.61791000       9.14369000      10.46982000      -0.00373400       0.00158900       0.01239100
O        4.36023000       1.73797000       7.11605000       0.00974000      -0.00689600       0.00310400
O        6.68473000       3.88536000       5.14144000      -0.00660600      -0.00258000       0.00361600
O        8.02172000       1.34563000       0.08498000      -0.00053000       0.00364400       0.00407200
O        7.58451000       1.28288000       2.74091000      -0.00245300      -0.00187100      -0.00573200
O        7.12152000       3.96345000       2.48349000      -0.00831600       0.00016600      -0.00428800
O        4.78820000       0.90558000       4.46867000       0.00618000      -0.00653800      -0.00371900
O        9.91222000       4.34007000       0.74884000       0.00934900      -0.00417800      -0.00404900
O        9.47280000       3.53133000       3.40116000       0.01894800      -0.00871600       0.00253400
O        5.22219000       1.71564000       1.82690000      -0.00096500       0.00731100       0.00664000
O        7.05460000       6.60262000       5.37889000       0.00361000      -0.00905800      -0.00272000
O        1.94980000       6.58847000       5.41521000       0.00555200      -0.00004500      -0.00007300
O        1.51569000       6.52437000       8.06939000       0.00577800      -0.00737000       0.00454800
O        1.05735000       9.21485000       7.81505000      -0.00242700       0.00001900       0.01259400
O       -1.26894000       6.15320000       9.81417000       0.00348000       0.01033500       0.00412400
O        3.83860000       9.60451000       6.09333000      -0.00121400       0.01015800       0.00016900
O        8.61046000       3.53316000       8.70757000      -0.00165200       0.00656100       0.00917200
O        9.02725000       4.34718000       6.05701000       0.00503600      -0.00788700      -0.00592500
O        3.91514000       0.90356000       9.78082000       0.00065900      -0.00037000       0.00212500
O        6.24978000       3.94955000       7.80386000      -0.00002700       0.01060600      -0.00773900
O        6.72707000       6.52683000       8.06432000      -0.00080500       0.00385100      -0.00186700
O        6.24052000       9.21278000       7.78927000      -0.01067300       0.01410300       0.00493000
O        3.91297000       6.16628000       9.79821000      -0.01560900       0.00056800       0.00734800
O        9.03606000       9.57990000       6.05394000       0.00887300       0.01278100      -0.01233000
O        8.60190000       8.78088000       8.69851000       0.01694800      -0.00639200       0.00499900
O        4.36683000       6.97057000       7.10855000      -0.00810200      -0.00950000       0.00282700
O        6.67853000       9.14893000       5.13528000      -0.00885000      -0.00497500       0.00277600
O        3.41249000       8.76632000       8.73334000      -0.01146200       0.00997800      -0.00059500
O        8.01578000       6.58991000       0.10017000      -0.00277600       0.00219900       0.01384700
O        7.12735000       9.22595000       2.47543000      -0.00674900       0.00421300       0.00708800
O        9.91663000       9.57884000       0.74275000       0.01257400       0.00295700      -0.00302700
O        9.47818000       8.77535000       3.40231000      -0.00926300       0.01643000      -0.00932000
O        5.19482000       6.91170000       1.89445000      -0.01544300      -0.00026500       0.01467400
O        5.80489000       3.89772000      10.44937000       0.00197700      -0.00360300      -0.00032700
O        7.14831000       1.34397000       5.39310000      -0.00890400      -0.00345000      -0.01062700
O        6.70865000       1.26755000       8.04645000      -0.00897800       0.00059500      -0.00857600
O        7.57845000       6.52146000       2.75322000      -0.01409800      -0.00601300       0.00564600
O       -0.85049000       6.96081000       7.15490000       0.00574300      -0.00407000       0.01394500
O        5.80931000       9.14077000      10.44119000      -0.00493800      -0.00112000       0.00271400
O       -1.27367000       0.90921000       9.81246000       0.00964900       0.00157200       0.00352400
O        2.39780000       1.27802000       2.76547000       0.00416100      -0.00267600      -0.00290100
O        1.91999000       3.96377000       2.50034000       0.00526600      -0.01938100       0.00153600
O       -0.39994000       0.90713000       4.50630000      -0.00320300       0.00090500      -0.00734700
O        1.96153000       1.34479000       5.41596000      -0.00813800       0.00746400      -0.00642600
O        0.61962000       3.90023000      10.46903000       0.01517800       0.00820700      -0.00343000
O        1.05421000       3.97281000       7.81646000       0.00243100       0.00272100       0.00400300
O        1.48983000       3.89387000       5.16675000       0.00197000      -0.00838500       0.00776500
O        3.84040000       4.37963000       6.04995000       0.00565200      -0.00163400      -0.00285700
O        3.42010000       3.54769000       8.71557000      -0.00030100      -0.00026300      -0.00164400
O        0.04258000       6.96211000       1.85613000      -0.00152800      -0.01434700       0.00082000
O        4.25905000       8.71949000       3.48053000       0.00518200       0.00196900      -0.00352300
O        4.72486000       4.33236000       0.75980000      -0.00294900      -0.03654800      -0.00665700
O        4.30483000       3.57251000       3.41677000      -0.00328800      -0.00451500      -0.00032200
O        0.03568000       1.71150000       1.85219000       0.00299300       0.00327700       0.00618700
O       -0.83543000       1.71564000       7.16005000       0.00474800      -0.01136200      -0.00893600
O        4.72545000       9.56763000       0.78967000      -0.00446700      -0.00808000      -0.00593300
O       -0.42085000       6.15977000       4.51182000       0.00891600       0.00218300       0.00259600
O        1.93368000       9.21771000       2.50982000      -0.00063700      -0.00370200      -0.00175100
O        2.40203000       6.52355000       2.77613000      -0.00414200      -0.00202200       0.00092700
O        2.83547000       6.59508000       0.11671000      -0.01182200      -0.00616800       0.00371500
O        1.48963000       9.14112000       5.16386000       0.00180900       0.00595400      -0.00675400
O        2.83402000       1.34745000       0.11056000       0.00389600       0.00041400       0.00198400
O        1.52897000       1.27804000       8.06960000       0.00267700       0.00118700      -0.00264600
Zr       0.37569000       0.22667000       6.41254000      -0.00679500       0.00728400       0.00287100
Zr       2.19793000       5.02182000       9.47808000       0.00218800       0.00661100      -0.01084800
Zr       7.38869000      10.26168000       9.45247000       0.00570800       0.00946600       0.00583000
Zr       5.98723000       7.61200000       3.76207000      -0.00182700      -0.00588000      -0.00177100
Zr       7.81058000       8.09888000       6.79857000       0.01173200       0.00330800       0.01049200
Zr       5.13826000       7.63982000       9.04319000       0.00234800      -0.00288200       0.01116100
Zr       0.81479000       2.39210000       3.75722000      -0.01970900       0.00343800      -0.00601000
Zr       3.50647000       2.85569000       1.51636000       0.00399500       0.00534300      -0.00353500
Zr       3.06261000       5.01960000       4.17315000       0.00399000       0.02383700      -0.02498000
Zr       5.55395000       5.46020000       6.40297000       0.00321300       0.00606900       0.00232700
Zr       8.69657000       8.10057000       1.49772000      -0.00243400      -0.00076900      -0.00869100
Zr      -0.06169000       7.64361000       9.06357000      -0.01021900      -0.00690600      -0.00914200
Zr       6.43721000       5.46726000       1.09219000       0.01475200       0.02201300       0.00156600
Zr       2.20046000      10.25577000       9.47722000       0.01485300       0.00671600      -0.00466900
Zr       0.36612000       5.47620000       6.41407000      -0.00457400       0.01252300      -0.00111300
Zr       6.44088000       0.23013000       1.08199000       0.00668600      -0.00899700      -0.01716900
Zr       8.25053000       5.00573000       4.14316000       0.00301400       0.01011500      -0.01029600
Zr       8.69968000       2.84796000       1.48921000      -0.00568900       0.00367900      -0.00138700
Zr       6.00454000       2.39453000       3.73268000       0.01614700       0.00474200       0.00230000
Zr       0.80913000       7.63578000       3.76285000      -0.01650700      -0.00138000       0.01033800
Zr       3.50090000       8.08822000       1.53063000       0.01909100      -0.00768400       0.01045300
Zr       3.06773000      10.26381000       4.17610000      -0.00493500      -0.00928700       0.00321400
Zr       1.25127000       5.47270000       1.10642000      -0.01160700       0.01027200       0.00390200
Zr       5.56687000       0.23141000       6.38454000       0.00343900      -0.00135800       0.01029100
Zr       7.39143000       5.01603000       9.45612000      -0.00264100      -0.00096000      -0.00006800
Zr       7.82165000       2.84803000       6.80252000       0.02014100      -0.00427800       0.00250600
Zr       5.13069000       2.39795000       9.03702000       0.00798200      -0.00292900       0.01056100
Zr       2.64178000       8.09403000       6.81474000      -0.00841300       0.00225900      -0.00371800
Zr      -0.05539000       2.39414000       9.06520000      -0.01646200      -0.00296900      -0.01445100
Zr       2.63232000       2.86074000       6.81694000       0.00958200       0.00926700      -0.00691700
Zr       8.25891000      10.26229000       4.14252000      -0.01176300      -0.02908200       0.00833200
Zr       1.25353000       0.22851000       1.10245000      -0.01921100      -0.00151700      -0.00827500
