95
Lattice="10.381444 0.0 -0.053824 0.0 10.490337 0.0 -1.746774 0.0 10.614441" Properties=species:S:1:pos:R:3:forces:R:3 energy=-909.93905074 stress="-1.89026 -0.24318 0.43406 -0.24318 -1.26922 0.67929 0.43406 0.67929 -2.33021" pbc="T T T"
O        0.61793000       9.14370000      10.47054000      -0.00122200       0.00070800       0.00119400
O        4.36136000       1.73864000       7.11534000       0.00341200       0.00156800       0.01334700
O        6.68350000       3.88563000       5.14181000       0.01334100      -0.00241400      -0.00580300
O        8.02205000       1.34547000       0.08529000       0.00192600       0.00433700      -0.00522400
O        7.58454000       1.28238000       2.74020000       0.00524400      -0.00185100      -0.00198700
O        7.12176000       3.96320000       2.48294000      -0.00462200       0.00815000       0.00041400
O        4.78897000       0.90493000       4.46798000       0.00166300      -0.00754600      -0.00160400
O        9.91314000       4.33964000       0.74864000       0.00012400      -0.00502500      -0.00367600
O        9.47310000       3.53152000       3.40122000       0.00641800       0.00414200       0.00085900
O        5.22257000       1.71549000       1.82701000       0.00630600      -0.00369800      -0.00117100
O        7.05636000       6.60119000       5.37961000       0.00101100       0.00295200       0.00008000
O        1.95022000       6.58897000       5.41550000      -0.00419200      -0.00146600      -0.00641200
O        1.51605000       6.52397000       8.06920000       0.00094300       0.00151900       0.00079200
O        1.05703000       9.21466000       7.81565000      -0.00025400       0.00176800       0.00152200
O       -1.26924000       6.15389000       9.81435000      -0.00466800       0.00392700       0.00750200
O        3.83772000       9.60661000       6.09419000      -0.00653500      -0.00732700       0.00345400
O        8.61080000       3.53352000       8.70805000      -0.00007600      -0.00186200      -0.00052700
O        9.02730000       4.34647000       6.05655000       0.01188800       0.00089800      -0.00678100
O        3.91535000       0.90345000       9.78095000       0.00865500       0.00499100      -0.00133000
O        6.25066000       3.94962000       7.80365000       0.00064500       0.00933600      -0.00132300
O        6.72641000       6.52731000       8.06504000       0.00232100       0.00511600       0.00388300
O        6.24015000       9.21373000       7.78939000      -0.00042900       0.00416600       0.01302200
O        3.91226000       6.16799000       9.79981000      -0.01217400       0.00151300       0.00989100
O        9.03632000       9.58003000       6.05278000      -0.00382200      -0.00372200      -0.00449000
O        8.60298000       8.78124000       8.69816000      -0.00331300       0.00513400       0.00429100
O        4.36606000       6.96968000       7.10882000      -0.01175100       0.00866700       0.01171300
O        6.67738000       9.14801000       5.13569000       0.00200800      -0.00697600       0.00437500
O        3.41229000       8.76645000       8.73389000      -0.00147500       0.00225800      -0.00876300
O        8.01564000       6.58973000       0.10174000      -0.00192700       0.00503300       0.00869000
O        7.12633000       9.22606000       2.47561000       0.00049700      -0.00682500       0.00637300
O        9.91751000       9.57821000       0.74203000      -0.00048500      -0.00086000      -0.00285900
O        9.47764000       8.77682000       3.40130000       0.00241600      -0.00214900      -0.01022000
O        5.19197000       6.90919000       1.89730000       0.00658400      -0.01316700       0.00819200
O        5.80568000       3.89778000      10.44915000      -0.00078400      -0.00178300       0.00223600
O        7.14792000       1.34398000       5.39243000       0.00232000      -0.00161800      -0.00251500
O        6.70854000       1.26764000       8.04612000      -0.00006600       0.00455600      -0.00023500
O        7.57659000       6.52109000       2.75393000      -0.00293300       0.00027800       0.00239000
O       -0.85044000       6.96070000       7.15630000       0.00089400      -0.00742700      -0.00143300
O        5.80963000       9.14073000      10.44185000      -0.00176100      -0.00000900      -0.00170200
O       -1.27338000       0.90923000       9.81268000       0.00339500       0.00523500      -0.00690500
O        2.39849000       1.27809000       2.76497000      -0.00671000      -0.00870500       0.00234200
O        1.92112000       3.96241000       2.49949000      -0.00437600       0.00370800       0.00477600
O       -0.40000000       0.90702000       4.50603000      -0.01555300      -0.00438300      -0.00938200
O        1.96086000       1.34535000       5.41573000      -0.00474900       0.00294100      -0.00689000
O        0.62053000       3.90092000      10.46848000       0.00640500       0.00278900      -0.00982600
O        1.05431000       3.97278000       7.81620000      -0.00145500       0.00609200       0.00058000
O        1.48940000       3.89339000       5.16721000       0.00743200       0.00984400      -0.00414000
O        3.84061000       4.38036000       6.04918000       0.00072200      -0.00149300      -0.00642400
O        3.42066000       3.54866000       8.71451000       0.00760100      -0.00317400      -0.00060300
O        0.04143000       6.96118000       1.85607000      -0.00858900      -0.00115300       0.01380800
O        4.25777000       8.71784000       3.48113000       0.01409500       0.00489500       0.00424600
O        4.72668000       4.32932000       0.75763000       0.01306800      -0.01101100      -0.00785700
O        4.30593000       3.57304000       3.41626000      -0.01256800       0.00687300       0.00156500
O        0.03541000       1.71163000       1.85212000      -0.00102800       0.00211700       0.00149700
O       -0.83482000       1.71506000       7.15944000      -0.00961900       0.00223300       0.00234900
O        4.72583000       9.56583000       0.78960000       0.00734700       0.00182600      -0.00656200
O       -0.42093000       6.16060000       4.51232000      -0.00115900      -0.00120900       0.00208800
O        1.93347000       9.21750000       2.50951000      -0.00290200      -0.00845100       0.00234600
O        2.40040000       6.52320000       2.77633000      -0.00636900       0.00087500       0.00231900
O        2.83471000       6.59481000       0.11687000      -0.00490200      -0.00627400       0.00517600
O        1.48953000       9.14162000       5.16336000      -0.00460000      -0.00481700      -0.00211100
O        2.83447000       1.34730000       0.11056000      -0.00112300       0.00289500      -0.00809000
O        1.52975000       1.27817000       8.06910000      -0.00300800       0.00231300       0.00212000
Zr       0.37542000       0.22714000       6.41214000       0.01508500       0.00288300      -0.00144200
Zr       2.19779000       5.02233000       9.47720000       0.00161300      -0.01038400       0.00062300
Zr       7.38925000      10.26265000       9.45234000       0.00226500      -0.00339300       0.00458900
Zr       5.98650000       7.61068000       3.76370000      -0.01289100      -0.00109600       0.00124100
Zr       7.81091000       8.09910000       6.79926000       0.00235400       0.00662800       0.00823700
Zr       5.13831000       7.64016000       9.04474000      -0.00484200      -0.00285300      -0.01245100
Zr       0.81343000       2.39245000       3.75657000       0.01503800      -0.01501500      -0.00192700
Zr       3.50721000       2.85598000       1.51526000       0.00139900      -0.00771000       0.00872900
Zr       3.06244000       5.02062000       4.17193000       0.01323600      -0.00933500      -0.01114200
Zr       5.55361000       5.46083000       6.40365000       0.00620200      -0.00818400      -0.00211200
Zr       8.69656000       8.10121000       1.49794000      -0.00350800       0.00254500      -0.01320100
Zr      -0.06193000       7.64357000       9.06347000       0.00927700       0.00270800       0.00891300
Zr       6.43762000       5.46836000       1.09247000      -0.01049500      -0.00226500       0.00228800
Zr       2.20146000      10.25593000       9.47709000      -0.01152500       0.00246700       0.00340300
Zr       0.36585000       5.47701000       6.41350000       0.01081400      -0.00992100       0.01615900
Zr       6.44153000       0.22950000       1.08171000      -0.01391000       0.00443700      -0.00426200
Zr       8.25055000       5.00627000       4.14326000      -0.01792400      -0.00938000      -0.00167600
Zr       8.69942000       2.84843000       1.48935000       0.00033300      -0.00906900      -0.00435700
Zr       6.00521000       2.39456000       3.73201000      -0.00180800       0.00021700       0.00872800
Zr       0.80771000       7.63586000       3.76331000       0.01208000       0.01655600      -0.00188600
Zr       3.50170000       8.08718000       1.53155000      -0.00677800       0.01489800      -0.00189400
Zr       3.06750000      10.26366000       4.17592000      -0.00146100       0.00930900      -0.00467100
Zr       1.25078000       5.47347000       1.10678000       0.00357700      -0.00862800      -0.00459600
Zr       5.56693000       0.23222000       6.38502000      -0.00447900      -0.00686800      -0.00711000
Zr       7.39163000       5.01558000       9.45662000      -0.00045600       0.00662600      -0.00961800
Zr       7.82251000       2.84769000       6.80228000      -0.00111900       0.00245800      -0.00641600
Zr       5.13108000       2.39814000       9.03736000      -0.00345200       0.00275300      -0.00085500
Zr       2.64122000       8.09450000       6.81471000       0.00569500       0.00901600       0.00065200
Zr      -0.05561000       2.39444000       9.06476000       0.01199200      -0.00171100      -0.00575500
Zr       2.63295000       2.86123000       6.81617000       0.00273600       0.00764700      -0.00808700
Zr       8.25795000      10.26093000       4.14226000      -0.01481700       0.00484900       0.01379800
Zr       1.25339000       0.22830000       1.10166000       0.00828400       0.00055500       0.01350800
