95
Lattice="10.381444 0.0 -0.053824 0.0 10.490337 0.0 -1.746774 0.0 10.614441" Properties=species:S:1:pos:R:3:forces:R:3 energy=-909.93942335 stress="-1.92583 -0.2751 0.43249 -0.2751 -1.31078 0.67077 0.43249 0.67077 -2.29577" pbc="T T T"
O        0.61787000       9.14375000      10.47110000       0.00418900       0.00450500       0.00125300
O        4.36233000       1.73918000       7.11568000      -0.00803500       0.00290500       0.00048200
O        6.68349000       3.88567000       5.14170000       0.00804300      -0.00788200      -0.00417900
O        8.02238000       1.34562000       0.08518000       0.00107200       0.00016000      -0.00637300
O        7.58489000       1.28193000       2.73961000      -0.00246200       0.00472500       0.00381200
O        7.12164000       3.96353000       2.48260000      -0.00477000      -0.00231800       0.00727000
O        4.78958000       0.90403000       4.46742000      -0.00483000      -0.00309400      -0.00245800
O        9.91377000       4.33905000       0.74828000      -0.00288200      -0.00529200      -0.00567100
O        9.47369000       3.53190000       3.40131000      -0.00003100       0.00198000      -0.00348900
O        5.22320000       1.71516000       1.82702000      -0.00455800       0.00008500       0.00401300
O        7.05760000       6.60042000       5.38010000      -0.00855600       0.00533200       0.00796100
O        1.95024000       6.58921000       5.41531000      -0.00123700       0.00301400       0.00013400
O        1.51635000       6.52380000       8.06912000      -0.00087400       0.00651100       0.00685800
O        1.05679000       9.21464000       7.81615000      -0.00110500       0.00887600      -0.00333300
O       -1.26972000       6.15460000       9.81492000      -0.00418300       0.00493100       0.00518000
O        3.83674000       9.60756000       6.09497000      -0.00420700       0.00024000      -0.00483900
O        8.61103000       3.53364000       8.70834000       0.00215800      -0.00394200      -0.00865000
O        9.02807000       4.34606000       6.05582000       0.00332200      -0.00664700       0.00126500
O        3.91602000       0.90369000       9.78096000      -0.00447800      -0.00188700      -0.00168500
O        6.25129000       3.95023000       7.80343000       0.00049700       0.00643100      -0.00300800
O        6.72610000       6.52795000       8.06576000      -0.00099800       0.00535600       0.00178800
O        6.23988000       9.21461000       7.79027000       0.00168700      -0.00049800       0.00715700
O        3.91104000       6.16923000       9.80148000      -0.00585400       0.00581700       0.00575700
O        9.03627000       9.57989000       6.05173000       0.00171400      -0.00571900       0.00685400
O        8.60351000       8.78180000       8.69819000      -0.00359300       0.00390900       0.00161700
O        4.36483000       6.96962000       7.10972000       0.00452100      -0.00094100       0.00614700
O        6.67673000       9.14697000       5.13623000      -0.00150800      -0.00116000       0.01265300
O        3.41207000       8.76667000       8.73372000      -0.00122400       0.00757300      -0.00348000
O        8.01542000       6.58991000       0.10332000      -0.00650200       0.00026600      -0.00831400
O        7.12568000       9.22572000       2.47612000      -0.00387700      -0.00308900       0.00014200
O        9.91806000       9.57774000       0.74137000       0.00528800       0.00680700      -0.00339100
O        9.47743000       8.77767000       3.40001000       0.00311300       0.00189200      -0.00350200
O        5.19046000       6.90671000       1.89971000      -0.00972800      -0.00600000       0.00227300
O        5.80616000       3.89770000      10.44913000      -0.00102300       0.00204700      -0.00167300
O        7.14780000       1.34389000       5.39184000       0.00025700      -0.00022600       0.00130300
O        6.70847000       1.26797000       8.04588000       0.00496200       0.00548500      -0.00156500
O        7.57517000       6.52087000       2.75454000       0.00016800       0.00288000       0.00188600
O       -0.85036000       6.96017000       7.15714000      -0.00467200      -0.00019500       0.00162700
O        5.80974000       9.14070000      10.44218000      -0.00238500       0.00219400      -0.00552900
O       -1.27298000       0.90957000       9.81240000       0.00653600       0.00338300      -0.00172800
O        2.39855000       1.27761000       2.76479000      -0.00153100      -0.01226200      -0.00043100
O        1.92160000       3.96173000       2.49923000      -0.00139100       0.00417200      -0.00120700
O       -0.40100000       0.90668000       4.50527000      -0.00363600      -0.00020300      -0.00117000
O        1.96012000       1.34590000       5.41515000       0.00334800      -0.00283600      -0.00773400
O        0.62154000       3.90156000      10.46751000       0.00099500      -0.00674300      -0.00316600
O        1.05429000       3.97313000       7.81606000       0.00555200      -0.00440700      -0.00000100
O        1.48956000       3.89367000       5.16726000       0.01382900       0.00583900      -0.01072500
O        3.84079000       4.38075000       6.04827000       0.00441000      -0.00412500      -0.00225300
O        3.42150000       3.54911000       8.71376000       0.00010400       0.00152100      -0.00710400
O        0.04013000       6.96048000       1.85688000      -0.00307300      -0.00384500       0.00675100
O        4.25777000       8.71703000       3.48179000      -0.00374600       0.01956100       0.00184900
O        4.72870000       4.32661000       0.75569000       0.00402900      -0.00895100       0.00019500
O        4.30589000       3.57381000       3.41602000       0.00375600      -0.01037700      -0.00437100
O        0.03516000       1.71184000       1.85216000       0.01019000      -0.00881500      -0.00386200
O       -0.83500000       1.71481000       7.15919000      -0.00327400      -0.00020200       0.00276700
O        4.72653000       9.56474000       0.78915000       0.00099500       0.00166400      -0.00548100
O       -0.42106000       6.16108000       4.51278000      -0.00563100      -0.00128200       0.00216800
O        1.93315000       9.21684000       2.50944000       0.00555200       0.00074300       0.00272600
O        2.39892000       6.52302000       2.77661000       0.00271400       0.00412400      -0.00364700
O        2.83390000       6.59425000       0.11730000       0.00649500       0.00476600       0.00531800
O        1.48918000       9.14166000       5.16290000       0.00051700       0.01034200       0.00486100
O        2.83470000       1.34739000       0.11006000      -0.00001200       0.00186300      -0.00143000
O        1.53009000       1.27839000       8.06889000      -0.00089300       0.00036700      -0.00262300
Zr       0.37616000       0.22764000       6.41178000      -0.00344900      -0.00481700      -0.00741500
Zr       2.19779000       5.02203000       9.47665000       0.00571700      -0.00859500       0.00655400
Zr       7.38977000      10.26308000       9.45254000      -0.00516200      -0.00041000       0.00217200
Zr       5.98522000       7.60973000       3.76486000       0.00834000      -0.01008000       0.00049400
Zr       7.81128000       8.09965000       6.80024000       0.00543100      -0.00288200      -0.00003700
Zr       5.13805000       7.64021000       9.04501000      -0.00807000      -0.00122800      -0.00833100
Zr       0.81345000       2.39177000       3.75602000      -0.00353200       0.00351500       0.00691200
Zr       3.50779000       2.85571000       1.51507000       0.00190000       0.00246900      -0.00113300
Zr       3.06314000       5.02073000       4.17044000      -0.00858900       0.00106900       0.00943300
Zr       5.55376000       5.46075000       6.40397000       0.00304700       0.00547600      -0.00083200
Zr       8.69633000       8.10179000       1.49727000      -0.00161700      -0.00411700       0.00934100
Zr      -0.06152000       7.64372000       9.06395000       0.00598700      -0.00654300       0.00442600
Zr       6.43725000       5.46896000       1.09280000      -0.00308500      -0.01098300       0.00213900
Zr       2.20142000      10.25619000       9.47722000      -0.00918600      -0.00061700      -0.00163800
Zr       0.36634000       5.47694000       6.41411000       0.00676700       0.00113400      -0.01105900
Zr       6.44112000       0.22934000       1.08126000       0.00719000       0.00177500       0.00656200
Zr       8.24946000       5.00606000       4.14322000       0.01349700       0.00644700      -0.00388100
Zr       8.69927000       2.84819000       1.48918000       0.00402900       0.00057600      -0.00009900
Zr       6.00555000       2.39460000       3.73210000       0.00263300      -0.00229200      -0.00243200
Zr       0.80750000       7.63692000       3.76349000      -0.00814100      -0.01335600      -0.00185500
Zr       3.50183000       8.08739000       1.53205000      -0.00966700      -0.00295200      -0.00496200
Zr       3.06726000      10.26413000       4.17552000       0.00379300      -0.00299900       0.00253500
Zr       1.25067000       5.47346000       1.10674000      -0.00987500      -0.00444700       0.00395900
Zr       5.56670000       0.23233000       6.38490000      -0.00031100      -0.00872800       0.00412900
Zr       7.39173000       5.01568000       9.45636000       0.00385300       0.00219700       0.00222300
Zr       7.82301000       2.84761000       6.80173000      -0.00145000       0.00989300       0.00215600
Zr       5.13113000       2.39843000       9.03753000       0.00735500       0.00348500      -0.00192200
Zr       2.64119000       8.09537000       6.81472000      -0.00149800      -0.01091800      -0.00136100
Zr      -0.05503000       2.39453000       9.06412000       0.00355300       0.00326100       0.00140300
Zr       2.63354000       2.86203000       6.81516000       0.00250200       0.00925500       0.00002900
Zr       8.25639000      10.26031000       4.14293000       0.00098600       0.00220800      -0.00565900
Zr       1.25380000       0.22818000       1.10196000      -0.00619800       0.00388000       0.00215000
