95
Lattice="10.381444 0.0 -0.053824 0.0 10.490337 0.0 -1.746774 0.0 10.614441" Properties=species:S:1:pos:R:3:forces:R:3 energy=-909.93993768 stress="-1.82925 -0.26664 0.41687 -0.26664 -1.40416 0.67027 0.41687 0.67027 -2.15545" pbc="T T T"
O        0.61847000       9.14416000      10.47146000      -0.00006200      -0.00035500      -0.00266200
O        4.36218000       1.73965000       7.11527000       0.00085500      -0.00185200       0.00138700
O        6.68559000       3.88487000       5.14105000       0.00258000      -0.00070200       0.00335200
O        8.02310000       1.34586000       0.08443000      -0.00290800      -0.00059300       0.00016200
O        7.58523000       1.28206000       2.73945000      -0.00309100      -0.00120800       0.00314500
O        7.12162000       3.96285000       2.48324000      -0.00026900       0.00407700      -0.00321200
O        4.78999000       0.90293000       4.46710000      -0.00580400       0.00138700       0.00174200
O        9.91424000       4.33698000       0.74653000       0.00437800       0.00333400      -0.00456000
O        9.47469000       3.53286000       3.39968000       0.00357900       0.00530200       0.00148800
O        5.22306000       1.71375000       1.82758000      -0.00590600      -0.00210500       0.00420100
O        7.05720000       6.60037000       5.38209000       0.00211300       0.00047800      -0.00384700
O        1.94981000       6.58999000       5.41512000       0.00098200      -0.00107700       0.00249100
O        1.51654000       6.52476000       8.07059000       0.00265800      -0.00249700       0.00081100
O        1.05607000       9.21581000       7.81595000      -0.00033300      -0.00222000       0.00114800
O       -1.27098000       6.15683000       9.81724000      -0.00313200      -0.00102800       0.00228000
O        3.83537000       9.60839000       6.09570000      -0.00146800      -0.00736800      -0.00512900
O        8.61156000       3.53429000       8.70677000       0.00616400       0.00495900      -0.00304500
O        9.03071000       4.34475000       6.05479000      -0.00099400      -0.00562200      -0.00221600
O        3.91604000       0.90433000       9.78070000      -0.00164200       0.00451200      -0.00186000
O        6.25210000       3.95234000       7.80277000       0.00125100      -0.00406500      -0.00015500
O        6.72544000       6.52959000       8.06716000       0.00194600       0.00143600       0.00288300
O        6.24000000       9.21574000       7.79229000       0.00147900      -0.00077200       0.00153700
O        3.90804000       6.17220000       9.80483000      -0.00330900       0.00034100       0.00283800
O        9.03702000       9.57858000       6.05140000      -0.00231800      -0.00445200      -0.00008300
O        8.60435000       8.78268000       8.69859000       0.00246100      -0.00195900      -0.00130700
O        4.36433000       6.96876000       7.11167000      -0.00587000       0.00494200       0.00257200
O        6.67576000       9.14585000       5.13944000       0.00252800      -0.00030100      -0.00659800
O        3.41139000       8.76862000       8.73227000       0.00513700       0.00002300       0.00081800
O        8.01339000       6.58975000       0.10347000      -0.00121400       0.00162400       0.00214500
O        7.12427000       9.22502000       2.47677000       0.00069700       0.00067800      -0.00060600
O        9.91850000       9.57755000       0.74052000       0.00040000      -0.00041400       0.00150700
O        9.47772000       8.77935000       3.39825000       0.00051100      -0.00090300       0.00125800
O        5.18596000       6.90170000       1.90373000       0.00363600      -0.00859300       0.00292000
O        5.80664000       3.89814000      10.44866000      -0.00324500       0.00193900      -0.00196600
O        7.14741000       1.34293000       5.39176000       0.00098500       0.00373600       0.00366300
O        6.70929000       1.26964000       8.04548000      -0.00012600       0.00046600       0.00147200
O        7.57400000       6.52129000       2.75575000      -0.00171200      -0.00259300      -0.00184400
O       -0.85046000       6.95863000       7.15870000      -0.00401000      -0.00031600       0.00330400
O        5.80963000       9.14154000      10.44230000      -0.00278400      -0.00342400       0.00002100
O       -1.27177000       0.91026000       9.81202000       0.00050300       0.00182000      -0.00146400
O        2.39780000       1.27569000       2.76409000       0.00214500       0.00306400       0.00040700
O        1.92190000       3.96171000       2.49827000       0.00279000      -0.00064600       0.00114100
O       -0.40268000       0.90684000       4.50428000       0.00225300       0.00537700       0.00307500
O        1.95971000       1.34710000       5.41331000      -0.00088400      -0.00062300      -0.00020200
O        0.62248000       3.90127000      10.46688000      -0.00171900       0.00093500      -0.00238200
O        1.05602000       3.97325000       7.81454000       0.00056500       0.00089200       0.00291400
O        1.49209000       3.89532000       5.16486000      -0.00161700       0.00033200       0.00163400
O        3.84277000       4.38085000       6.04659000      -0.00167000      -0.00454300      -0.00369300
O        3.42316000       3.55062000       8.71127000       0.00199200       0.00426200       0.00082100
O        0.03731000       6.95803000       1.85929000      -0.00232100      -0.00527900      -0.00044500
O        4.25866000       8.71895000       3.48184000      -0.00014200       0.00358900      -0.00495900
O        4.73201000       4.32129000       0.75317000      -0.00072800       0.00354400       0.00021900
O        4.30612000       3.57304000       3.41498000      -0.00020800      -0.00050800       0.00084000
O        0.03579000       1.71142000       1.85194000       0.00031700      -0.00158300      -0.00109300
O       -0.83537000       1.71402000       7.15883000      -0.00489700       0.00639900       0.00309200
O        4.72760000       9.56329000       0.78778000      -0.00250800      -0.00352900      -0.00078300
O       -0.42218000       6.16219000       4.51398000      -0.00307900       0.00225300       0.00254500
O        1.93327000       9.21593000       2.50949000       0.00057200      -0.00039900      -0.00042600
O        2.39735000       6.52347000       2.77653000       0.00100900      -0.00141000       0.00274500
O        2.83376000       6.59425000       0.11878000      -0.00111800      -0.00423400      -0.00044000
O        1.48804000       9.14281000       5.16331000       0.00463700      -0.00254200      -0.00434500
O        2.83540000       1.34770000       0.10968000       0.00042100      -0.00309000      -0.00390700
O        1.53041000       1.27895000       8.06747000       0.00013800       0.00229100       0.00309200
Zr       0.37576000       0.22758000       6.41045000       0.00271800      -0.00187000      -0.00194400
Zr       2.19889000       5.02072000       9.47728000      -0.00214700       0.00099100      -0.00209000
Zr       7.38992000      10.26368000       9.45257000      -0.00140800      -0.00145600       0.00289000
Zr       5.98386000       7.60765000       3.76635000       0.00692200       0.00354800       0.00313600
Zr       7.81221000       8.09965000       6.80218000      -0.00501800       0.00448400      -0.00324500
Zr       5.13623000       7.64072000       9.04548000       0.00266100       0.00567700      -0.00110700
Zr       0.81340000       2.39130000       3.75622000       0.00023600      -0.00075800      -0.00640500
Zr       3.50820000       2.85500000       1.51492000      -0.00191800      -0.00391000      -0.00145800
Zr       3.06359000       5.02094000       4.16977000       0.00542900       0.00217300       0.00108700
Zr       5.55446000       5.46201000       6.40429000      -0.00566800      -0.00003000       0.00259800
Zr       8.69534000       8.10205000       1.49757000       0.00174100       0.00291300       0.00472700
Zr      -0.06056000       7.64320000       9.06509000      -0.00132800       0.00491500       0.00222200
Zr       6.43660000       5.46810000       1.09354000       0.00069000      -0.00009000       0.00370600
Zr       2.20052000      10.25713000       9.47670000       0.00130500      -0.00086000      -0.00132200
Zr       0.36714000       5.47722000       6.41370000       0.00495800       0.00305500      -0.00051500
Zr       6.44106000       0.22902000       1.08107000       0.00465100       0.00121700       0.00132900
Zr       8.25054000       5.00585000       4.14321000       0.00254400       0.00106500      -0.00334700
Zr       8.69952000       2.84807000       1.48903000       0.00055900      -0.00747500      -0.00509700
Zr       6.00577000       2.39397000       3.73223000       0.00278200      -0.00596600      -0.00259000
Zr       0.80641000       7.63656000       3.76332000      -0.00290600       0.00491900       0.00255500
Zr       3.50099000       8.08739000       1.53236000       0.00318000       0.00172000      -0.00412200
Zr       3.06744000      10.26363000       4.17533000      -0.00313300       0.00309000       0.00508600
Zr       1.24955000       5.47302000       1.10753000      -0.00123300       0.00276600      -0.00125300
Zr       5.56623000       0.23156000       6.38548000       0.00612500      -0.00277400      -0.00068200
Zr       7.39205000       5.01632000       9.45608000      -0.00116100      -0.00179200       0.00325400
Zr       7.82339000       2.84848000       6.80134000      -0.00135700      -0.00595400      -0.00137400
Zr       5.13215000       2.39858000       9.03690000      -0.00059700       0.00100100       0.00264500
Zr       2.64019000       8.09539000       6.81506000       0.00088800       0.00314900      -0.00085900
Zr      -0.05420000       2.39463000       9.06306000      -0.00477700       0.00022400      -0.00069300
Zr       2.63478000       2.86316000       6.81410000       0.00067200      -0.00000300      -0.00817300
Zr       8.25481000      10.25998000       4.14310000       0.00186300      -0.00246900       0.00103300
Zr       1.25398000       0.22840000       1.10172000      -0.00786900      -0.00268500       0.00156700
