95
Lattice="10.381444 0.0 -0.053824 0.0 10.490337 0.0 -1.746774 0.0 10.614441" Properties=species:S:1:pos:R:3:forces:R:3 energy=-910.048273 stress="-0.04138 -0.51815 0.03771 -0.51815 -0.49149 0.8264 0.03771 0.8264 -1.58826" pbc="T T T"
O        0.61413000       9.14330000      10.47381000       0.00908800      -0.00629800       0.01512500
O        8.60527000       3.53679000       8.72203000      -0.03705800       0.00437600      -0.02045200
O        4.35192000       1.71532000       7.13290000      -0.01364600      -0.00658900       0.01992100
O        8.02058000       1.34716000       0.08786000      -0.01440200       0.02928600       0.00650300
O        7.58517000       1.27130000       2.73768000       0.02010700      -0.01268600      -0.00928900
O        7.10385000       3.97064000       2.52941000      -0.01065200       0.03413100       0.00471900
O        4.78574000       0.90006000       4.48323000       0.01362200      -0.02500200      -0.01752400
O        9.90901000       4.33814000       0.74887000      -0.03653300       0.01006900       0.01989900
O        9.47779000       3.52165000       3.39775000      -0.02283500       0.05302500       0.01238600
O        5.22770000       1.71789000       1.81580000       0.00387300       0.02975900      -0.00672000
O        7.14264000       6.56494000       5.39199000       0.02539200      -0.00111800       0.00446900
O        1.96427000       6.59057000       5.42200000       0.06757300      -0.02512500       0.02014300
O        1.51867000       6.52113000       8.07275000      -0.00785200      -0.02404500       0.00305200
O        1.05023000       9.21481000       7.82190000      -0.00363300      -0.01138000       0.00487200
O       -1.27564000       6.15282000       9.81348000      -0.03540800      -0.01581400       0.01137800
O        3.84603000       9.58387000       6.08361000       0.01930300       0.02568000       0.01570900
O        9.00884000       4.33530000       6.04980000       0.01737600       0.05647500      -0.05007500
O        3.91585000       0.90635000       9.78586000       0.04662500       0.04327200      -0.03738600
O        6.24305000       3.96900000       7.74343000       0.04256200      -0.05455700      -0.02742700
O        6.70525000       1.26847000       8.05264000      -0.01407400       0.01594600      -0.03534500
O        6.71085000       6.52356000       8.05086000      -0.01975400       0.00025600       0.00856600
O        6.24215000       9.21330000       7.79376000      -0.00885300      -0.01348000      -0.03521800
O        3.91616000       6.15197000       9.78615000       0.00594400      -0.02875000       0.03169000
O        9.03388000       9.58611000       6.05385000      -0.06816800      -0.00723700       0.00605400
O        8.59985000       8.77376000       8.70772000      -0.01500800      -0.01262100      -0.03646300
O        4.34793000       6.97303000       7.13596000       0.05832600      -0.01453400      -0.00346900
O        6.68103000       9.14433000       5.14100000       0.00601400      -0.01847400      -0.00340800
O        3.40879000       8.77443000       8.73601000      -0.00120700       0.01130500       0.02462100
O        8.02059000       6.59242000       0.08582000      -0.02444700      -0.03007300       0.00363500
O        7.11522000       9.21677000       2.48661000      -0.01808700      -0.00496400       0.00698300
O        4.79482000       6.14644000       4.47944000      -0.01974500      -0.00299600      -0.00547300
O        9.90980000       9.58440000       0.74820000      -0.00838900      -0.00983800       0.01249300
O        9.47061000       8.77654000       3.40174000      -0.01121600       0.00342900       0.01036700
O        5.22343000       6.96204000       1.82312000       0.01019300      -0.03180600       0.00677600
O        5.80552000       3.89789000      10.44730000      -0.01688700       0.01110800      -0.01741500
O        7.12587000       1.40787000       5.38559000      -0.11999900       0.03870300      -0.04771700
O        7.57892000       6.52979000       2.73169000       0.00154600      -0.03858800      -0.00135600
O       -0.83954000       6.96177000       7.16051000      -0.04815300       0.00070100       0.00111200
O        5.80504000       9.14362000      10.44787000      -0.01624700      -0.00976200      -0.00214400
O       -1.27504000       0.90602000       9.81270000      -0.00673800       0.00353300      -0.01241500
O        2.82952000       1.34652000       0.11276000       0.01751100       0.03531700       0.03862400
O        2.39196000       1.27632000       2.76661000       0.02063900       0.01344400       0.00738100
O        1.92475000       3.96911000       2.51394000       0.04279600      -0.00138500       0.02509900
O       -0.40290000       0.90479000       4.50410000      -0.01474600       0.00857500      -0.01502200
O        0.61427000       3.89807000      10.47470000       0.03921900       0.02102500       0.03568600
O        1.05092000       3.96950000       7.81993000       0.00884100       0.00215900      -0.00866500
O        1.48804000       3.89823000       5.16850000       0.01974200       0.00788100      -0.00151600
O        3.85873000       4.33050000       6.07795000       0.03405600      -0.01950200      -0.02344200
O        3.40997000       3.52892000       8.73540000       0.03490400       0.00640500      -0.00999900
O        0.03472000       6.96151000       1.85133000      -0.00303200      -0.01496800       0.02484200
O        4.28248000       8.77380000       3.42790000       0.03997600      -0.04419100       0.00528600
O        4.72013000       4.33931000       0.77476000       0.02827200       0.00644700       0.02353000
O        4.29300000       3.53204000       3.43822000       0.02058700      -0.03543100      -0.02697100
O        0.03357000       1.71705000       1.85102000      -0.01802500       0.00937000      -0.01806500
O       -0.82092000       1.70948000       7.15817000      -0.07780600       0.09846700       0.01055800
O        4.71969000       9.58489000       0.77435000      -0.01189300      -0.01441500       0.01261000
O       -0.38593000       6.16310000       4.51906000      -0.12820400      -0.07626800       0.00891100
O        1.92505000       9.21577000       2.51224000       0.01845300       0.00541100      -0.00032400
O        2.39288000       6.52083000       2.76567000       0.02291800      -0.02137500       0.00937800
O        2.82879000       6.59231000       0.11272000       0.01198100      -0.00764700       0.00692900
O        1.48827000       9.14313000       5.16788000       0.01029900      -0.01274700      -0.01266100
O        1.95564000       1.34699000       5.42035000       0.02234100       0.01325800      -0.00410200
O        1.52201000       1.27504000       8.07461000       0.06870100      -0.00446300       0.01907100
Zr       0.37715000       0.22759000       6.41485000       0.05562200      -0.03342000       0.00883500
Zr       2.19562000       5.01482000       9.48073000      -0.05997000       0.05186900      -0.04126300
Zr       7.38466000      10.26369000       9.45301000       0.06867800      -0.04681300       0.04550400
Zr       2.63314000       2.85199000       6.82639000      -0.09765000      -0.01930100      -0.00922400
Zr       7.82096000       8.09167000       6.79966000       0.04325400       0.04489000       0.02480000
Zr       5.12987000       7.64088000       9.04308000      -0.02538000       0.09514800       0.06107000
Zr       0.81223000       2.39471000       3.76178000       0.03765100      -0.07173600      -0.00403000
Zr       3.50883000       2.85257000       1.52310000      -0.03569100      -0.04548100      -0.00978300
Zr       3.07170000       5.01566000       4.17289000      -0.03625400      -0.00130100       0.01764200
Zr       5.55716000       5.48835000       6.40330000      -0.00942200      -0.02015000      -0.05835000
Zr       6.00282000       7.63197000       3.73264000      -0.00767000       0.06799700      -0.01399300
Zr      -0.05963000       7.63975000       9.06831000      -0.00880800       0.02050800       0.00251100
Zr       8.26339000      10.25926000       4.14375000       0.09414000      -0.07246400      -0.01909400
Zr       2.19534000      10.26155000       9.48034000      -0.03848100       0.01630100      -0.02743600
Zr       0.36261000       5.47498000       6.40729000       0.01133800       0.00512600       0.02643300
Zr       6.43823000       0.22721000       1.07921000       0.04769600      -0.05941200      -0.03848500
Zr       8.25896000       5.00462000       4.13197000      -0.01882500       0.00298400       0.08763300
Zr       8.69600000       2.85113000       1.49847000       0.08451200      -0.06359000      -0.02931300
Zr       6.01326000       2.37615000       3.72508000      -0.01594500       0.09685000       0.05055000
Zr       0.81081000       7.63635000       3.76364000       0.04863300       0.03514800      -0.00908900
Zr       3.50502000       8.09656000       1.52123000      -0.04658100       0.03281600      -0.02875800
Zr       3.07035000      10.26231000       4.17258000      -0.05272000      -0.02193500       0.00327000
Zr       1.24988000       5.47333000       1.10839000      -0.02997700       0.01972200      -0.01640700
Zr       5.55904000       0.23107000       6.38796000      -0.02854400      -0.03387000       0.00581300
Zr       7.39110000       5.01576000       9.44981000       0.07619500       0.02049800       0.04351300
Zr       7.83157000       2.84221000       6.79946000       0.04012500       0.06114400      -0.03449100
Zr       5.12752000       2.39073000       9.03837000      -0.01204900      -0.06616900       0.03578000
Zr       2.62872000       8.09692000       6.82529000      -0.09649200       0.01346000       0.02260200
Zr      -0.06334000       2.39667000       9.06802000       0.06755000      -0.08218400       0.03101000
Zr       6.43763000       5.47567000       1.08330000       0.00368900       0.03219400      -0.04492200
Zr       8.69422000       8.09273000       1.49291000       0.03105600       0.06016000      -0.02899300
Zr       1.24996000       0.22644000       1.10779000      -0.04576400       0.02032700      -0.04164900
