95
Lattice="10.381444 0.0 -0.053824 0.0 10.490337 0.0 -1.746774 0.0 10.614441" Properties=species:S:1:pos:R:3:forces:R:3 energy=-910.0541635 stress="-0.18293 -0.27484 0.0069 -0.27484 -0.51038 0.78797 0.0069 0.78797 -1.64576" pbc="T T T"
O        0.61438000       9.14309000      10.47423000      -0.00992200       0.00780200       0.00105100
O        8.60485000       3.53731000       8.72267000       0.01773800      -0.02203100      -0.01479200
O        4.35122000       1.71483000       7.13386000      -0.04282000      -0.00346300       0.00198900
O        8.02021000       1.34820000       0.08839000       0.00618200      -0.01256700      -0.00548900
O        7.58669000       1.26989000       2.73675000       0.00910400      -0.01122600       0.00131000
O        7.10301000       3.97224000       2.53255000      -0.00405100      -0.00088800      -0.01137600
O        4.78531000       0.89764000       4.48320000      -0.01667600      -0.01993700      -0.03938800
O        9.90764000       4.33844000       0.74987000       0.00523300       0.02646800       0.01694100
O        9.47807000       3.52247000       3.39759000       0.01440300       0.01339300       0.01674400
O        5.22815000       1.71860000       1.81408000       0.01545400       0.00801700       0.00157000
O        7.14372000       6.56329000       5.39223000       0.00882100       0.01836000       0.00620500
O        1.96733000       6.58961000       5.42305000       0.02895300      -0.00637300       0.01055900
O        1.51812000       6.52040000       8.07261000      -0.02176400       0.00914200       0.00014200
O        1.04988000       9.21448000       7.82218000      -0.01984200      -0.00145600       0.00591000
O       -1.27689000       6.15247000       9.81398000       0.01904500       0.03040900       0.01179300
O        3.84657000       9.58468000       6.08447000      -0.04995300      -0.01409900       0.01302700
O        9.00849000       4.33794000       6.04751000       0.03057600       0.02985300      -0.00387000
O        3.91746000       0.90775000       9.78454000      -0.01618100      -0.02709700      -0.01842200
O        6.24516000       3.96649000       7.73873000       0.02741200      -0.01915600      -0.01530300
O        6.70447000       1.26812000       8.05215000       0.00799500      -0.01721900      -0.01339900
O        6.71035000       6.52414000       8.05208000      -0.01978500      -0.00097300       0.00704300
O        6.24194000       9.21260000       7.79264000      -0.00227800      -0.00930700      -0.00137000
O        3.91647000       6.15107000       9.78731000      -0.01235700       0.00142400      -0.00034400
O        9.03130000       9.58631000       6.05393000       0.01257400       0.03394100       0.01626100
O        8.59939000       8.77331000       8.70636000       0.01271500      -0.00411600      -0.00139300
O        4.34899000       6.97444000       7.13664000       0.01282700       0.00382400      -0.01210200
O        6.68181000       9.14397000       5.14096000       0.00821900      -0.01694700      -0.00824300
O        3.40862000       8.77497000       8.73698000      -0.04271800       0.03340300       0.02038000
O        8.01985000       6.59145000       0.08598000      -0.00084300       0.02293600       0.00969600
O        7.11473000       9.21690000       2.48676000      -0.00037000      -0.01961100      -0.00955900
O        4.79446000       6.14636000       4.47884000      -0.02249700      -0.00692500      -0.00091700
O        9.90946000       9.58406000       0.74874000       0.02025800       0.01126100       0.00070100
O        9.46998000       8.77687000       3.40214000       0.03838800      -0.02338300      -0.00446900
O        5.22348000       6.96103000       1.82294000      -0.02982100       0.01274500       0.01098300
O        5.80513000       3.89825000      10.44672000      -0.00006100       0.00203100      -0.02064000
O        7.11969000       1.41381000       5.38314000      -0.07678500       0.01296800      -0.01620700
O        7.57896000       6.52933000       2.73049000       0.00193500      -0.00813700       0.01463100
O       -0.84131000       6.96179000       7.16072000      -0.00501800      -0.00174600       0.02122300
O        5.80452000       9.14335000      10.44790000       0.00283300       0.01357900       0.01042400
O       -1.27526000       0.90623000       9.81205000       0.00918700      -0.01492000       0.00949900
O        2.83000000       1.34764000       0.11390000      -0.00333000      -0.00008100       0.01300500
O        2.39236000       1.27686000       2.76685000       0.00472100      -0.01179800       0.00010700
O        1.92603000       3.96901000       2.51471000       0.02840400      -0.00130400       0.02294300
O       -0.40359000       0.90494000       4.50342000       0.02229400      -0.00339700       0.01302100
O        0.61548000       3.89875000      10.47588000       0.02037700       0.00567800       0.01137400
O        1.05092000       3.96959000       7.81949000       0.00289100      -0.00765400       0.00069400
O        1.48837000       3.89841000       5.16862000       0.01448700      -0.00846900       0.00151400
O        3.86011000       4.32834000       6.07698000       0.01201300      -0.02291200      -0.02925500
O        3.41129000       3.52914000       8.73515000      -0.01494700       0.02839900      -0.02129400
O        0.03446000       6.96100000       1.85227000       0.00327200       0.01125600       0.02670700
O        4.28376000       8.77230000       3.42796000      -0.01561000      -0.01109200       0.00453200
O        4.72129000       4.33970000       0.77550000      -0.01812800      -0.01305800       0.01066400
O        4.29418000       3.53107000       3.43772000      -0.01212300      -0.01626700      -0.00656500
O        0.03269000       1.71752000       1.85026000       0.03772700      -0.03517800      -0.02243000
O       -0.82192000       1.71241000       7.15872000       0.01609100       0.01663100      -0.00364700
O        4.71934000       9.58449000       0.77471000      -0.02013400      -0.00664600      -0.00994300
O       -0.38924000       6.16120000       4.52069000      -0.02544200       0.01491700      -0.01120100
O        1.92570000       9.21610000       2.51202000      -0.00572400       0.01099500       0.00531500
O        2.39338000       6.52031000       2.76567000       0.00617700      -0.00072300       0.01343500
O        2.82899000       6.59206000       0.11288000      -0.00294400       0.01001700      -0.00869500
O        1.48855000       9.14256000       5.16752000      -0.01156100      -0.00058600       0.00836000
O        1.95615000       1.34735000       5.42015000       0.00536700      -0.01490100      -0.00391200
O        1.52465000       1.27479000       8.07540000       0.03661500      -0.01892800       0.00483900
Zr       0.37994000       0.22576000       6.41498000      -0.05365600       0.04483000       0.00260100
Zr       2.19373000       5.01621000       9.47928000       0.02922400       0.00408400       0.01457300
Zr       7.38671000      10.26199000       9.45467000      -0.00193000       0.01502800      -0.04227900
Zr       2.63082000       2.85235000       6.82563000      -0.01232900      -0.00192000       0.02447800
Zr       7.82165000       8.09230000       6.79989000      -0.03606700      -0.00258600       0.00718900
Zr       5.12904000       7.64438000       9.04545000      -0.00513100      -0.01569000      -0.00250100
Zr       0.81438000       2.39222000       3.76179000      -0.02928800       0.02069200      -0.00684000
Zr       3.50831000       2.85158000       1.52398000       0.04358900       0.00777400      -0.01921600
Zr       3.07246000       5.01487000       4.17392000      -0.02913200      -0.00551600      -0.00733000
Zr       5.55641000       5.48790000       6.40118000       0.01350600      -0.00395200       0.00938500
Zr       6.00210000       7.63283000       3.73293000       0.03255800       0.02951000      -0.03786000
Zr      -0.05953000       7.64051000       9.06853000      -0.03637400      -0.02789400       0.00296600
Zr       8.26666000      10.25639000       4.14320000      -0.00773500      -0.00426700      -0.02828600
Zr       2.19411000      10.26203000       9.47946000       0.03982900       0.01650800       0.01768600
Zr       0.36175000       5.47477000       6.40785000      -0.01132900       0.00734900      -0.01943400
Zr       6.43963000       0.22503000       1.07762000       0.02129900       0.02441600       0.02485300
Zr       8.25621000       5.00349000       4.13464000      -0.00923200       0.02362100       0.01347700
Zr       8.69830000       2.84910000       1.49789000      -0.01115100       0.00290000       0.01318200
Zr       6.01323000       2.37987000       3.72719000       0.01120300       0.03765900      -0.01279800
Zr       0.81324000       7.63771000       3.76356000      -0.02343400      -0.08115200      -0.00664700
Zr       3.50338000       8.09781000       1.52060000       0.03228000      -0.02172500      -0.00754900
Zr       3.06905000      10.26163000       4.17257000       0.05590600      -0.00220500       0.00452400
Zr       1.24942000       5.47385000       1.10802000      -0.03376100      -0.01471000       0.01447600
Zr       5.55747000       0.23072000       6.38767000       0.00284600       0.00564900       0.00541500
Zr       7.39347000       5.01647000       9.45054000      -0.01169300      -0.01384800       0.00711300
Zr       7.83186000       2.84456000       6.79703000       0.00604800       0.04082600      -0.00393300
Zr       5.12680000       2.38858000       9.03890000       0.02946200      -0.00099800       0.01022900
Zr       2.62517000       8.09741000       6.82587000       0.03878100      -0.03567600       0.01979900
Zr      -0.06045000       2.39413000       9.06971000      -0.00804100       0.00991800      -0.01155800
Zr       6.43741000       5.47645000       1.08233000       0.01911400      -0.00470800      -0.01771900
Zr       8.69489000       8.09463000       1.49162000      -0.02878000      -0.04845900       0.01578900
Zr       1.24875000       0.22683000       1.10653000      -0.02318700       0.03966400      -0.01414900
