95
Lattice="10.381444 0.0 -0.053824 0.0 10.490337 0.0 -1.746774 0.0 10.614441" Properties=species:S:1:pos:R:3:forces:R:3 energy=-910.05672812 stress="-0.10847 -0.23048 0.02692 -0.23048 -0.48339 0.83018 0.02692 0.83018 -1.66212" pbc="T T T"
O        0.61402000       9.14336000      10.47445000      -0.00987400       0.00211400      -0.01079400
O        8.60564000       3.53662000       8.72254000       0.00123200       0.00206300      -0.00248500
O        4.34890000       1.71441000       7.13442000      -0.00829100      -0.01778600       0.00867700
O        8.02036000       1.34808000       0.08843000       0.01064100      -0.00289200      -0.00731100
O        7.58792000       1.26857000       2.73629000       0.00806000       0.00495700      -0.00030500
O        7.10232000       3.97298000       2.53404000       0.00758800      -0.01499200      -0.02497000
O        4.78419000       0.89538000       4.48146000       0.02595500       0.01165200      -0.03220300
O        9.90725000       4.33979000       0.75115000      -0.01371200       0.00806200       0.00786900
O        9.47905000       3.52327000       3.39819000      -0.00650300       0.00736700      -0.00093600
O        5.22911000       1.71924000       1.81312000       0.04184800      -0.00201600       0.00417500
O        7.14462000       6.56305000       5.39263000      -0.00259200       0.01510400       0.00175800
O        1.97018000       6.58887000       5.42407000      -0.00872200      -0.02381400      -0.00373100
O        1.51682000       6.52052000       8.07252000      -0.01351800      -0.00359600       0.00281600
O        1.04878000       9.21428000       7.82261000      -0.01797500       0.00410500      -0.00270400
O       -1.27658000       6.15375000       9.81477000      -0.02453200      -0.00912100       0.02437600
O        3.84448000       9.58437000       6.08551000      -0.01096600      -0.00186700       0.01885400
O        9.00950000       4.34058000       6.04621000       0.00747800      -0.00353900       0.01893300
O        3.91743000       0.90710000       9.78309000       0.02215200      -0.00460200       0.00460900
O        6.24748000       3.96439000       7.73515000       0.01203700       0.00426500       0.01294900
O        6.70443000       1.26701000       8.05144000       0.00812900      -0.00849000      -0.00994600
O        6.70925000       6.52446000       8.05311000      -0.01126700      -0.01790200       0.01452900
O        6.24176000       9.21181000       7.79209000      -0.00834700      -0.00421100       0.00880200
O        3.91605000       6.15075000       9.78782000       0.00682400       0.01703200      -0.00246000
O        9.03068000       9.58805000       6.05469000      -0.01128900       0.02411200       0.00832700
O        8.59978000       8.77292000       8.70567000      -0.01534800       0.01315000       0.00357000
O        4.34989000       6.97559000       7.13653000       0.02106200      -0.00681700       0.00346200
O        6.68264000       9.14307000       5.14058000       0.00968700      -0.00354100      -0.00946100
O        3.40654000       8.77678000       8.73837000       0.01072700      -0.01560700       0.01280600
O        8.01950000       6.59210000       0.08650000       0.00175600       0.01197200       0.00135400
O        7.11452000       9.21611000       2.48638000       0.00457300      -0.02246100      -0.00686500
O        4.79333000       6.14599000       4.47846000       0.01845100       0.00894500       0.00305900
O        9.91024000       9.58443000       0.74904000      -0.02277100      -0.01383600      -0.00656500
O        9.47143000       8.77597000       3.40211000       0.00142600      -0.00786500      -0.00682800
O        5.22206000       6.96119000       1.82330000       0.01779200      -0.01621300      -0.00270900
O        5.80499000       3.89850000      10.44551000       0.00986800       0.00328200      -0.01053900
O        7.11297000       1.41801000       5.38115000      -0.03115000       0.01158300       0.01238200
O        7.57905000       6.52891000       2.73043000       0.00126800      -0.00163800       0.00166700
O       -0.84236000       6.96172000       7.16183000      -0.01191100      -0.01087300       0.00552300
O        5.80443000       9.14387000      10.44841000       0.00630800       0.00999500       0.00272500
O       -1.27494000       0.90564000       9.81217000       0.00076400      -0.00099200      -0.01467400
O        2.83004000       1.34812000       0.11497000      -0.00472200       0.00995100      -0.00684300
O        2.39271000       1.27656000       2.76695000      -0.00264600       0.00387000      -0.00103800
O        1.92789000       3.96889000       2.51611000       0.00590200       0.00607700       0.00633600
O       -0.40290000       0.90483000       4.50369000      -0.00600300      -0.00473800       0.00180500
O        0.61694000       3.89931000      10.47693000       0.00114100      -0.00052300      -0.00390000
O        1.05100000       3.96928000       7.81929000      -0.01140100      -0.00221400       0.00530300
O        1.48913000       3.89809000       5.16878000      -0.00499800      -0.00632800       0.00340000
O        3.86138000       4.32605000       6.07516000       0.02659000      -0.01373700      -0.01604100
O        3.41121000       3.53054000       8.73406000       0.01234500       0.01992600      -0.00643100
O        0.03447000       6.96129000       1.85393000      -0.00763400      -0.00512200       0.00640100
O        4.28359000       8.77112000       3.42817000       0.00951000      -0.02052800       0.00357100
O        4.72100000       4.33930000       0.77632000       0.01825200       0.01332200      -0.00220700
O        4.29425000       3.52994000       3.43730000       0.00062400      -0.01351400       0.00438000
O        0.03400000       1.71613000       1.84885000      -0.01941000       0.02461700      -0.00414100
O       -0.82128000       1.71439000       7.15882000       0.01213800       0.01979900      -0.00293200
O        4.71826000       9.58402000       0.77440000       0.02824500       0.02007800       0.00374100
O       -0.39166000       6.16121000       4.52116000      -0.00097800       0.02108600      -0.00813300
O        1.92573000       9.21678000       2.51213000      -0.00185700      -0.00193000      -0.00199200
O        2.39384000       6.52009000       2.76624000      -0.00870000      -0.01078300       0.00498700
O        2.82892000       6.59242000       0.11254000      -0.00969900      -0.00453900      -0.00148300
O        1.48813000       9.14226000       5.16777000      -0.01841600      -0.02122300       0.00722300
O        1.95657000       1.34680000       5.41988000      -0.00858500       0.00148500       0.00482200
O        1.52758000       1.27378000       8.07599000      -0.00042200       0.01063600      -0.00059800
Zr       0.37884000       0.22692000       6.41514000      -0.00315700       0.00084300       0.00309200
Zr       2.19428000       5.01695000       9.47930000      -0.00060700      -0.00544300       0.01480500
Zr       7.38747000      10.26193000       9.45346000       0.00743500      -0.00252900      -0.02480000
Zr       2.62938000       2.85258000       6.82635000       0.00129100      -0.01683600       0.00320800
Zr       7.82016000       8.09230000       6.80023000      -0.00572200       0.00285000      -0.00117600
Zr       5.12843000       7.64525000       9.04644000      -0.02297600      -0.00802600      -0.02225300
Zr       0.81412000       2.39208000       3.76151000       0.01912000       0.00712100       0.00405800
Zr       3.51022000       2.85160000       1.52368000       0.00659600      -0.00840800      -0.00421200
Zr       3.07176000       5.01413000       4.17411000      -0.01247900       0.00040300      -0.00825600
Zr       5.55660000       5.48761000       6.40072000      -0.02164600       0.00329100      -0.00948400
Zr       6.00321000       7.63432000       3.73142000      -0.02037800      -0.00306500      -0.01189400
Zr      -0.06110000       7.63956000       9.06878000       0.02260100       0.02450400       0.00777100
Zr       8.26777000      10.25485000       4.14166000       0.00965100       0.00052400      -0.00018200
Zr       2.19541000      10.26300000       9.47989000      -0.02284600      -0.01427900       0.01729600
Zr       0.36060000       5.47496000       6.40712000       0.02497300       0.02389800      -0.00282700
Zr       6.44120000       0.22517000       1.07801000      -0.02746200       0.01743900       0.01577700
Zr       8.25423000       5.00385000       4.13634000       0.00640700       0.02628900      -0.01273800
Zr       8.69872000       2.84835000       1.49833000      -0.00509400       0.00420900       0.03277600
Zr       6.01385000       2.38326000       3.72755000      -0.02526800      -0.00996300      -0.02171900
Zr       0.81334000       7.63458000       3.76326000       0.01851400      -0.00769700       0.01588200
Zr       3.50413000       8.09738000       1.52004000      -0.02439700       0.01044500      -0.00469000
Zr       3.07114000      10.26123000       4.17276000      -0.01308100      -0.01129300      -0.00826500
Zr       1.24775000       5.47338000       1.10856000       0.03148800      -0.00222200       0.02350700
Zr       5.55678000       0.23096000       6.38771000      -0.03709900       0.01488500      -0.01250500
Zr       7.39396000       5.01615000       9.45106000       0.00344400      -0.00731200      -0.01741800
Zr       7.83214000       2.84751000       6.79556000       0.01515900      -0.00316800      -0.01077500
Zr       5.12780000       2.38758000       9.03949000      -0.01166000      -0.00280600      -0.02956300
Zr       2.62533000       8.09598000       6.82701000      -0.00376500       0.00883900       0.00041100
Zr      -0.05946000       2.39352000       9.07002000       0.01113600       0.01825900      -0.01102600
Zr       6.43814000       5.47654000       1.08118000      -0.02227300      -0.00212300       0.01143500
Zr       8.69378000       8.09319000       1.49173000       0.01529900      -0.01213300       0.01624900
Zr       1.24721000       0.22879000       1.10534000       0.05065700      -0.03725300       0.02354900
