95
Lattice="10.381444 0.0 -0.053824 0.0 10.490337 0.0 -1.746774 0.0 10.614441" Properties=species:S:1:pos:R:3:forces:R:3 energy=-910.05672813 stress="-0.10767 -0.23033 0.02744 -0.23033 -0.48265 0.82972 0.02744 0.82972 -1.66107" pbc="T T T"
O        0.61402000       9.14335000      10.47445000      -0.00987900       0.00210900      -0.01081500
O        8.60564000       3.53662000       8.72254000       0.00113800       0.00212500      -0.00243200
O        4.34890000       1.71441000       7.13442000      -0.00814700      -0.01769300       0.00869000
O        8.02036000       1.34808000       0.08843000       0.01067200      -0.00284200      -0.00733100
O        7.58792000       1.26857000       2.73629000       0.00803800       0.00502800      -0.00030800
O        7.10232000       3.97298000       2.53404000       0.00768800      -0.01499300      -0.02507300
O        4.78420000       0.89538000       4.48146000       0.02607200       0.01178300      -0.03213600
O        9.90725000       4.33979000       0.75115000      -0.01375700       0.00798200       0.00779200
O        9.47905000       3.52327000       3.39818000      -0.00662300       0.00739100      -0.00098600
O        5.22911000       1.71924000       1.81312000       0.04187900      -0.00199400       0.00419600
O        7.14462000       6.56305000       5.39263000      -0.00261500       0.01511100       0.00175900
O        1.97017000       6.58887000       5.42407000      -0.00884100      -0.02383600      -0.00375900
O        1.51682000       6.52052000       8.07252000      -0.01348300      -0.00364800       0.00286700
O        1.04878000       9.21428000       7.82261000      -0.01795800       0.00408900      -0.00267500
O       -1.27658000       6.15375000       9.81476000      -0.02462200      -0.00922200       0.02432400
O        3.84448000       9.58437000       6.08551000      -0.01082700      -0.00187000       0.01884100
O        9.00950000       4.34058000       6.04621000       0.00743000      -0.00364800       0.01898600
O        3.91743000       0.90710000       9.78309000       0.02222500      -0.00452100       0.00468800
O        6.24748000       3.96440000       7.73515000       0.01197200       0.00433500       0.01316300
O        6.70443000       1.26701000       8.05145000       0.00816700      -0.00840200      -0.00988500
O        6.70925000       6.52446000       8.05311000      -0.01121000      -0.01795600       0.01455300
O        6.24176000       9.21181000       7.79209000      -0.00832000      -0.00418900       0.00885500
O        3.91605000       6.15075000       9.78782000       0.00689500       0.01699000      -0.00247700
O        9.03068000       9.58805000       6.05469000      -0.01133200       0.02404000       0.00833500
O        8.59978000       8.77292000       8.70567000      -0.01540600       0.01312500       0.00361900
O        4.34989000       6.97559000       7.13653000       0.02111100      -0.00694600       0.00352200
O        6.68264000       9.14307000       5.14058000       0.00969300      -0.00351700      -0.00942100
O        3.40654000       8.77678000       8.73837000       0.01087000      -0.01571200       0.01278400
O        8.01950000       6.59209000       0.08649000       0.00179900       0.01190700       0.00130500
O        7.11452000       9.21611000       2.48638000       0.00461400      -0.02240900      -0.00687800
O        4.79333000       6.14599000       4.47846000       0.01855400       0.00891200       0.00310400
O        9.91024000       9.58443000       0.74904000      -0.02285800      -0.01383700      -0.00658500
O        9.47143000       8.77597000       3.40211000       0.00132700      -0.00785400      -0.00684300
O        5.22206000       6.96119000       1.82330000       0.01793400      -0.01627100      -0.00275700
O        5.80499000       3.89850000      10.44551000       0.00991300       0.00328400      -0.01052500
O        7.11298000       1.41800000       5.38115000      -0.03078400       0.01140600       0.01251000
O        7.57905000       6.52891000       2.73043000       0.00130400      -0.00170700       0.00165200
O       -0.84236000       6.96172000       7.16183000      -0.01193500      -0.01088300       0.00552500
O        5.80443000       9.14387000      10.44841000       0.00634900       0.00996100       0.00269500
O       -1.27494000       0.90564000       9.81217000       0.00066600      -0.00093300      -0.01466200
O        2.83004000       1.34812000       0.11497000      -0.00472600       0.00996900      -0.00688400
O        2.39271000       1.27656000       2.76695000      -0.00269600       0.00391900      -0.00109500
O        1.92789000       3.96889000       2.51611000       0.00579300       0.00608600       0.00623000
O       -0.40290000       0.90483000       4.50369000      -0.00612000      -0.00468700       0.00179500
O        0.61694000       3.89931000      10.47693000       0.00081900      -0.00019000      -0.00423900
O        1.05100000       3.96928000       7.81929000      -0.01142200      -0.00219200       0.00535900
O        1.48913000       3.89809000       5.16878000      -0.00505900      -0.00629700       0.00341600
O        3.86137000       4.32606000       6.07516000       0.02657500      -0.01362600      -0.01591100
O        3.41121000       3.53054000       8.73406000       0.01240400       0.01990300      -0.00633400
O        0.03447000       6.96129000       1.85393000      -0.00770100      -0.00518300       0.00629400
O        4.28359000       8.77113000       3.42817000       0.00959500      -0.02053300       0.00353500
O        4.72100000       4.33930000       0.77632000       0.01831900       0.01331700      -0.00226900
O        4.29425000       3.52994000       3.43730000       0.00068300      -0.01346800       0.00437200
O        0.03400000       1.71613000       1.84885000      -0.01954400       0.02471500      -0.00412700
O       -0.82128000       1.71439000       7.15882000       0.01201200       0.01977600      -0.00289400
O        4.71826000       9.58402000       0.77440000       0.02834700       0.02010400       0.00372100
O       -0.39166000       6.16121000       4.52116000      -0.00097600       0.02098600      -0.00815000
O        1.92573000       9.21678000       2.51213000      -0.00190100      -0.00196400      -0.00203700
O        2.39384000       6.52009000       2.76624000      -0.00872300      -0.01083200       0.00493900
O        2.82892000       6.59242000       0.11254000      -0.00973000      -0.00461800      -0.00149600
O        1.48813000       9.14226000       5.16777000      -0.01843100      -0.02121400       0.00722600
O        1.95657000       1.34680000       5.41988000      -0.00862000       0.00153500       0.00484900
O        1.52757000       1.27378000       8.07599000      -0.00057500       0.01071700      -0.00059800
Zr       0.37884000       0.22691000       6.41514000      -0.00307900       0.00077600       0.00305400
Zr       2.19427000       5.01695000       9.47930000      -0.00064400      -0.00541400       0.01478800
Zr       7.38747000      10.26193000       9.45346000       0.00748600      -0.00255500      -0.02484800
Zr       2.62938000       2.85258000       6.82635000       0.00126300      -0.01689600       0.00318200
Zr       7.82016000       8.09230000       6.80023000      -0.00570600       0.00290500      -0.00119000
Zr       5.12844000       7.64525000       9.04644000      -0.02306800      -0.00798400      -0.02228300
Zr       0.81412000       2.39208000       3.76151000       0.01922700       0.00705200       0.00411300
Zr       3.51022000       2.85160000       1.52368000       0.00658100      -0.00846000      -0.00417300
Zr       3.07176000       5.01414000       4.17411000      -0.01249300       0.00042900      -0.00825100
Zr       5.55660000       5.48761000       6.40072000      -0.02170100       0.00330300      -0.00952100
Zr       6.00321000       7.63432000       3.73143000      -0.02046900      -0.00296400      -0.01191700
Zr      -0.06110000       7.63956000       9.06878000       0.02266800       0.02456000       0.00777400
Zr       8.26777000      10.25485000       4.14166000       0.00970200       0.00047300      -0.00017400
Zr       2.19541000      10.26300000       9.47989000      -0.02287300      -0.01432200       0.01731400
Zr       0.36060000       5.47496000       6.40712000       0.02501400       0.02389900      -0.00284200
Zr       6.44119000       0.22517000       1.07801000      -0.02752700       0.01739600       0.01579500
Zr       8.25423000       5.00385000       4.13634000       0.00639900       0.02629300      -0.01265800
Zr       8.69872000       2.84835000       1.49833000      -0.00506100       0.00412500       0.03281400
Zr       6.01385000       2.38326000       3.72755000      -0.02534800      -0.00994500      -0.02164600
Zr       0.81334000       7.63458000       3.76326000       0.01861700      -0.00765700       0.01588400
Zr       3.50413000       8.09738000       1.52004000      -0.02442200       0.01051500      -0.00465500
Zr       3.07114000      10.26123000       4.17276000      -0.01307600      -0.01134500      -0.00826200
Zr       1.24775000       5.47338000       1.10856000       0.03156600      -0.00218200       0.02358300
Zr       5.55678000       0.23096000       6.38771000      -0.03718600       0.01487700      -0.01256100
Zr       7.39396000       5.01615000       9.45106000       0.00346600      -0.00731100      -0.01744900
Zr       7.83214000       2.84751000       6.79556000       0.01516300      -0.00318200      -0.01086700
Zr       5.12780000       2.38758000       9.03949000      -0.01169900      -0.00290400      -0.02959800
Zr       2.62533000       8.09598000       6.82701000      -0.00379200       0.00889300       0.00037500
Zr      -0.05946000       2.39352000       9.07002000       0.01122800       0.01819700      -0.01102100
Zr       6.43814000       5.47654000       1.08118000      -0.02235700      -0.00208200       0.01142000
Zr       8.69379000       8.09319000       1.49173000       0.01534100      -0.01212100       0.01631200
Zr       1.24721000       0.22879000       1.10534000       0.05074400      -0.03729000       0.02359000
