95
Lattice="10.381444 0.0 -0.053824 0.0 10.490337 0.0 -1.746774 0.0 10.614441" Properties=species:S:1:pos:R:3:forces:R:3 energy=-910.05929216 stress="-0.02872 -0.21612 0.06036 -0.21612 -0.38771 0.90764 0.06036 0.90764 -1.63539" pbc="T T T"
O        0.61272000       9.14447000      10.47475000       0.00229700      -0.00183200      -0.00017500
O        8.60689000       3.53682000       8.72232000       0.00316600       0.00277600       0.00764100
O        4.34483000       1.71009000       7.13617000      -0.01174200       0.00456500       0.00004800
O        8.02213000       1.34863000       0.08709000       0.01181100       0.00808600      -0.00294200
O        7.59062000       1.26771000       2.73712000       0.00219800      -0.00197200       0.00022000
O        7.10282000       3.97147000       2.53105000       0.00571800       0.00371700      -0.00179200
O        4.78415000       0.89197000       4.47475000       0.00306700      -0.00170900       0.00265000
O        9.90487000       4.34209000       0.75452000       0.00809800       0.00419100      -0.00320000
O        9.47910000       3.52548000       3.39995000       0.00904500      -0.00551400      -0.00121100
O        5.23472000       1.72182000       1.81196000      -0.00171900       0.00627700      -0.01265700
O        7.14428000       6.56528000       5.39316000      -0.00628600      -0.00197700       0.00030300
O        1.97131000       6.58444000       5.42454000       0.00385000      -0.00025700       0.00850300
O        1.51427000       6.52049000       8.07299000      -0.00215200      -0.00329400       0.00358800
O        1.04528000       9.21468000       7.82329000       0.00127200       0.00459400       0.00271100
O       -1.27893000       6.15549000       9.81979000      -0.00759500      -0.00221200       0.00516800
O        3.84064000       9.58520000       6.08782000      -0.00855300       0.00134400      -0.00681300
O        9.01165000       4.34260000       6.04770000       0.00176100       0.00507600      -0.00594200
O        3.91992000       0.90565000       9.78306000       0.00083400       0.00588900      -0.00293600
O        6.25048000       3.96348000       7.73372000      -0.00168300      -0.00430100      -0.00205800
O        6.70479000       1.26521000       8.04800000       0.00224300       0.00720600       0.00537100
O        6.70676000       6.52170000       8.05501000       0.00139200       0.00194600      -0.00294100
O        6.23905000       9.21109000       7.79116000      -0.00256100      -0.00121000      -0.00292600
O        3.91504000       6.15308000       9.78808000      -0.00769100      -0.00313600       0.00315800
O        9.02656000       9.59362000       6.05740000      -0.00124300       0.00337500       0.00854500
O        8.59855000       8.77365000       8.70512000      -0.00864800      -0.00027100       0.00529700
O        4.35063000       6.97663000       7.13596000      -0.00271400      -0.01258400      -0.00557100
O        6.68449000       9.14309000       5.13852000      -0.01339200       0.00149000      -0.00244900
O        3.40436000       8.77490000       8.74038000      -0.00893400      -0.00229800       0.00376900
O        8.01850000       6.59422000       0.08739000       0.00273800      -0.00303200      -0.00411300
O        7.11509000       9.21241000       2.48524000       0.00626700       0.00328400      -0.01111700
O        4.79442000       6.14608000       4.47816000      -0.01033200      -0.01627300      -0.00028200
O        9.90985000       9.58332000       0.74846000       0.00746500       0.00522300       0.00050100
O        9.47237000       8.77528000       3.40250000       0.00528700      -0.00170700      -0.00186300
O        5.22176000       6.95971000       1.82229000       0.00501700      -0.00303500       0.00292600
O        5.80620000       3.89877000      10.44240000       0.00326200       0.00342100       0.00041400
O        7.10400000       1.42381000       5.38245000       0.01473400      -0.00182300      -0.00767200
O        7.57892000       6.52787000       2.73069000      -0.00047800      -0.00368800      -0.00192700
O       -0.84578000       6.96040000       7.16408000       0.00248200      -0.00670600       0.00362700
O        5.80511000       9.14569000      10.44792000       0.00371700      -0.00175500      -0.00521700
O       -1.27263000       0.90442000       9.80973000       0.00417000       0.00272000      -0.00253100
O        2.83059000       1.34907000       0.11517000       0.00124600       0.00203600      -0.00015400
O        2.39327000       1.27580000       2.76676000      -0.00374500       0.00088000      -0.00401800
O        1.93061000       3.96885000       2.51794000      -0.00972900      -0.00401600      -0.00459200
O       -0.40318000       0.90472000       4.50361000       0.00697300       0.00772700      -0.00171400
O        0.61869000       3.89969000      10.47805000      -0.00588400       0.00164800       0.00115700
O        1.04984000       3.96947000       7.82000000       0.00854900       0.00308400       0.01040500
O        1.48910000       3.89697000       5.16975000       0.00169800       0.00241300       0.00428900
O        3.86636000       4.31974000       6.07064000       0.00215600      -0.01067900      -0.00414400
O        3.41467000       3.53519000       8.73130000      -0.00162700       0.00931800      -0.00785300
O        0.03482000       6.95928000       1.85704000      -0.00292100      -0.00363300      -0.00125300
O        4.28207000       8.76795000       3.42890000       0.00087700      -0.01104500       0.00679000
O        4.72287000       4.34004000       0.77640000      -0.00834500      -0.00530300      -0.00764500
O        4.29346000       3.52715000       3.43709000       0.00126400       0.00032700      -0.00405500
O        0.03461000       1.71808000       1.84822000       0.00316400       0.00461300       0.00052900
O       -0.81715000       1.71904000       7.15680000       0.00157500       0.01502800      -0.00321100
O        4.71913000       9.58574000       0.77630000      -0.00088400       0.00542100       0.00181200
O       -0.39260000       6.16555000       4.52182000      -0.00548900      -0.00682700       0.02076800
O        1.92675000       9.21609000       2.51217000      -0.01050400      -0.00104500       0.00063700
O        2.39364000       6.51876000       2.76703000       0.00536800      -0.00703800       0.00047600
O        2.82763000       6.59339000       0.11323000      -0.00289400      -0.01023300      -0.00303100
O        1.48544000       9.13770000       5.16927000      -0.00311000       0.00182900       0.00697100
O        1.95566000       1.34564000       5.41979000      -0.00263100       0.00082500      -0.00072800
O        1.52970000       1.27469000       8.07667000      -0.00703300       0.00888000       0.00293300
Zr       0.37745000       0.22789000       6.41606000       0.00114100      -0.01124000      -0.00240600
Zr       2.19457000       5.01703000       9.48073000       0.01734900       0.00761700       0.00003300
Zr       7.38765000      10.26263000       9.45179000      -0.00214800       0.00274700      -0.01602300
Zr       2.62770000       2.85175000       6.82696000       0.01157000      -0.01049000      -0.00226600
Zr       7.81770000       8.09295000       6.80025000      -0.00552600       0.01242800       0.00124200
Zr       5.12808000       7.64523000       9.04669000      -0.00481900       0.01056500      -0.01157800
Zr       0.81513000       2.39313000       3.76137000      -0.00656000      -0.01682600       0.00522200
Zr       3.51209000       2.85079000       1.52295000       0.01358300      -0.01370300       0.00541200
Zr       3.07186000       5.01268000       4.17399000       0.00512500       0.00159100       0.00171500
Zr       5.55530000       5.48711000       6.39920000       0.00782100       0.00393600       0.00904900
Zr       6.00250000       7.63402000       3.73012000       0.00283100       0.01529500      -0.00054200
Zr      -0.06251000       7.63996000       9.06948000      -0.00643000       0.01857200       0.00591500
Zr       8.26966000      10.25295000       4.14064000      -0.00900100       0.00333600      -0.00245100
Zr       2.19445000      10.26352000       9.48151000       0.00757000      -0.00789800       0.00381900
Zr       0.36190000       5.47722000       6.40831000      -0.01256700       0.00411100      -0.00370500
Zr       6.44365000       0.22562000       1.07781000      -0.00763200      -0.00912400       0.00719700
Zr       8.25458000       5.00691000       4.13557000       0.00355100      -0.00186200       0.00408700
Zr       8.69890000       2.84900000       1.50019000      -0.00896700      -0.00767100      -0.00435600
Zr       6.01306000       2.38418000       3.72551000       0.00419000      -0.01303400      -0.00202300
Zr       0.81500000       7.63245000       3.76521000       0.00312300       0.00896900      -0.00434300
Zr       3.50370000       8.09705000       1.51920000       0.00748800       0.01460500       0.00408200
Zr       3.06951000      10.25936000       4.17245000      -0.00316600      -0.00496900      -0.00184000
Zr       1.24852000       5.47238000       1.11097000       0.00130400       0.01435600       0.00641300
Zr       5.55309000       0.23263000       6.38547000       0.00380300      -0.01490700      -0.00137500
Zr       7.39477000       5.01490000       9.45033000      -0.01003600       0.00811600      -0.00094900
Zr       7.83451000       2.84910000       6.79239000      -0.01061300      -0.00182500       0.00095200
Zr       5.12916000       2.38706000       9.03697000       0.00008800      -0.00675300      -0.00731900
Zr       2.62413000       8.09583000       6.82886000       0.00304500       0.00501800       0.00028600
Zr      -0.05884000       2.39616000       9.06950000       0.00204000      -0.01968100       0.00330800
Zr       6.43859000       5.47679000       1.08076000       0.00161100       0.00043300       0.00220000
Zr       8.69572000       8.09161000       1.49138000      -0.00277500       0.00726600       0.01276700
Zr       1.24834000       0.22683000       1.10613000       0.00876900       0.00221500      -0.00299700
