95
Lattice="10.381444 0.0 -0.053824 0.0 10.490337 0.0 -1.746774 0.0 10.614441" Properties=species:S:1:pos:R:3:forces:R:3 energy=-910.05962141 stress="-0.02955 -0.23419 0.07394 -0.23419 -0.37638 0.90719 0.07394 0.90719 -1.61864" pbc="T T T"
O        0.61262000       9.14470000      10.47508000       0.00928200      -0.00177500      -0.00046800
O        8.60704000       3.53729000       8.72277000       0.00246300      -0.00301800       0.00203300
O        4.34363000       1.70933000       7.13650000       0.00702700      -0.00908100      -0.00541600
O        8.02319000       1.34926000       0.08659000       0.00203000      -0.00227800       0.00021600
O        7.59127000       1.26737000       2.73748000      -0.00434200      -0.00575100      -0.00379600
O        7.10333000       3.97137000       2.53018000       0.00247200       0.00016700       0.00388600
O        4.78389000       0.89083000       4.47386000       0.01084700       0.00207400       0.00380700
O        9.90461000       4.34242000       0.75501000       0.00805300       0.00410100      -0.00352500
O        9.47933000       3.52568000       3.40037000       0.00830300      -0.00780600      -0.00273600
O        5.23562000       1.72271000       1.81086000       0.00726500      -0.00370800      -0.00927800
O        7.14374000       6.56564000       5.39322000      -0.00622800       0.00476200       0.00058800
O        1.97153000       6.58381000       5.42519000       0.00503000       0.00636300       0.00202900
O        1.51383000       6.52050000       8.07328000      -0.00344700       0.00612700       0.00495900
O        1.04480000       9.21502000       7.82368000       0.00333700       0.00555200       0.00186700
O       -1.27972000       6.15603000       9.82086000      -0.00316900       0.00402600       0.00151800
O        3.83963000       9.58577000       6.08750000      -0.00152700      -0.00304300      -0.00077800
O        9.01190000       4.34306000       6.04759000      -0.00788700      -0.00185400      -0.00200400
O        3.92041000       0.90576000       9.78314000      -0.00298400      -0.00200400      -0.00264200
O        6.25065000       3.96320000       7.73360000      -0.00294400      -0.00362800      -0.00483600
O        6.70489000       1.26534000       8.04765000       0.00068600       0.00428700      -0.00223800
O        6.70657000       6.52134000       8.05489000      -0.00452600       0.00940700      -0.00382000
O        6.23828000       9.21105000       7.79071000      -0.00509800      -0.00099800      -0.00574400
O        3.91443000       6.15354000       9.78833000       0.00588500       0.00630900       0.00032000
O        9.02533000       9.59466000       6.05844000      -0.00061000       0.00596200       0.00181000
O        8.59769000       8.77383000       8.70533000      -0.00874500      -0.00054900       0.00153700
O        4.35008000       6.97620000       7.13538000       0.00035300      -0.00670700       0.00120100
O        6.68400000       9.14351000       5.13803000      -0.01544700       0.00311700      -0.00267900
O        3.40330000       8.77415000       8.74068000       0.00027100      -0.00156100       0.00499000
O        8.01842000       6.59448000       0.08736000      -0.00107900       0.00011600      -0.00631600
O        7.11573000       9.21209000       2.48436000      -0.00344700       0.00389200       0.00044400
O        4.79418000       6.14510000       4.47808000       0.00366600      -0.00052100      -0.00278900
O        9.91040000       9.58345000       0.74833000       0.00167100       0.00341700       0.00030900
O        9.47238000       8.77553000       3.40260000       0.00816500      -0.00272300       0.00350700
O        5.22199000       6.95935000       1.82211000      -0.00034700       0.00699600       0.00756100
O        5.80663000       3.89888000      10.44191000      -0.00251200       0.00310600      -0.00091400
O        7.10407000       1.42443000       5.38257000       0.00635100      -0.01342500      -0.01234000
O        7.57886000       6.52748000       2.73058000      -0.00225500       0.00385300       0.00218600
O       -0.84654000       6.96008000       7.16473000      -0.00328400       0.00309500       0.00622700
O        5.80550000       9.14596000      10.44738000       0.00013200      -0.00059300      -0.00666200
O       -1.27211000       0.90388000       9.80920000       0.00211400       0.00430700      -0.00309000
O        2.83091000       1.34895000       0.11522000       0.00371000      -0.00093900      -0.00175600
O        2.39317000       1.27538000       2.76647000       0.00204100      -0.00203700       0.00008500
O        1.93040000       3.96843000       2.51782000      -0.00466400      -0.00124700      -0.00071400
O       -0.40309000       0.90508000       4.50339000      -0.00460300      -0.00841000       0.00253200
O        0.61858000       3.89976000      10.47833000      -0.00295100      -0.00208400      -0.00030000
O        1.05021000       3.96986000       7.82070000       0.01053600      -0.00103100       0.00681700
O        1.48913000       3.89689000       5.17022000       0.00233500      -0.00078700       0.00095600
O        3.86744000       4.31783000       6.06971000       0.00668300      -0.00236700      -0.00348900
O        3.41576000       3.53630000       8.73027000       0.00066100       0.00446800      -0.00461700
O        0.03452000       6.95882000       1.85749000      -0.00199500       0.00148700       0.00972400
O        4.28143000       8.76704000       3.42947000       0.00358500      -0.00963200       0.00456700
O        4.72284000       4.33981000       0.77591000      -0.00203700      -0.00296400      -0.00322700
O        4.29349000       3.52666000       3.43683000       0.00707200      -0.00507600      -0.00505800
O        0.03517000       1.71855000       1.84834000      -0.00067100       0.00167400      -0.00429000
O       -0.81616000       1.72050000       7.15584000       0.00028800       0.00728900      -0.00107200
O        4.71911000       9.58641000       0.77700000       0.00099600       0.00357900       0.00088900
O       -0.39293000       6.16604000       4.52335000       0.00166500       0.00690400       0.00650600
O        1.92644000       9.21578000       2.51224000      -0.00749300      -0.00196100       0.00473600
O        2.39400000       6.51832000       2.76715000       0.00225300       0.00127900       0.00108300
O        2.82725000       6.59332000       0.11334000       0.00094100      -0.00128600       0.00256500
O        1.48487000       9.13690000       5.17001000      -0.00243400       0.00593600       0.00218300
O        1.95528000       1.34523000       5.41965000       0.00115300      -0.00468100      -0.00079100
O        1.52940000       1.27533000       8.07693000      -0.00182200      -0.00303500       0.00409900
Zr       0.37758000       0.22756000       6.41617000      -0.00449900       0.00292900       0.00180000
Zr       2.19542000       5.01747000       9.48095000      -0.00613900      -0.00535200      -0.00592400
Zr       7.38756000      10.26340000       9.45095000       0.00027700      -0.00361800       0.00236000
Zr       2.62779000       2.85140000       6.82680000       0.00013500       0.00421200       0.00124400
Zr       7.81708000       8.09373000       6.80019000       0.00773100      -0.00733300       0.00530000
Zr       5.12794000       7.64542000       9.04621000      -0.00107400       0.00434400      -0.00076900
Zr       0.81497000       2.39270000       3.76162000      -0.00258600      -0.00076400       0.00070200
Zr       3.51268000       2.85012000       1.52312000      -0.00080200       0.00522100      -0.00041900
Zr       3.07234000       5.01244000       4.17402000      -0.00537100      -0.00885500       0.00520100
Zr       5.55553000       5.48720000       6.39959000       0.00291200      -0.00887800      -0.00331900
Zr       6.00231000       7.63454000       3.73023000       0.00516500      -0.01329900      -0.00313300
Zr      -0.06335000       7.64035000       9.06994000      -0.00105500       0.00569900       0.00371200
Zr       8.26935000      10.25284000       4.14061000       0.00592100       0.01329100      -0.00445200
Zr       2.19484000      10.26362000       9.48178000      -0.00401000      -0.00079500      -0.00141900
Zr       0.36152000       5.47730000       6.40867000      -0.00172700       0.00064800       0.00613400
Zr       6.44383000       0.22494000       1.07772000       0.00515400       0.00744100      -0.00024000
Zr       8.25556000       5.00697000       4.13566000      -0.00647500      -0.00486700      -0.00155200
Zr       8.69879000       2.84909000       1.49969000      -0.00046800       0.00068000      -0.00095000
Zr       6.01316000       2.38335000       3.72518000       0.00409300       0.00450600      -0.00404500
Zr       0.81562000       7.63271000       3.76522000      -0.00447300      -0.00633400       0.00122200
Zr       3.50446000       8.09722000       1.51948000      -0.00809800       0.00222900      -0.00380200
Zr       3.06875000      10.25892000       4.17236000      -0.00653300       0.00370100      -0.00144900
Zr       1.24885000       5.47289000       1.11162000       0.00059700      -0.00603000      -0.00298600
Zr       5.55296000       0.23194000       6.38474000      -0.00576700       0.00255400       0.00433000
Zr       7.39451000       5.01507000       9.45037000       0.00038900       0.00197900       0.00493600
Zr       7.83447000       2.84916000       6.79195000       0.00099600       0.00746000       0.00879900
Zr       5.12936000       2.38696000       9.03623000      -0.00204400       0.00365100      -0.00147600
Zr       2.62405000       8.09583000       6.82922000      -0.01052000      -0.00627800      -0.00174400
Zr      -0.05864000       2.39581000       9.06987000       0.00093400       0.00516100      -0.00276500
Zr       6.43873000       5.47692000       1.08054000       0.00744900      -0.00901700       0.00638100
Zr       8.69634000       8.09171000       1.49180000      -0.00170200       0.00469200      -0.00261200
Zr       1.24866000       0.22729000       1.10587000       0.00081900      -0.00406900       0.00057800
