95
Lattice="10.381444 0.0 -0.053824 0.0 10.490337 0.0 -1.746774 0.0 10.614441" Properties=species:S:1:pos:R:3:forces:R:3 energy=-910.05983162 stress="-0.05625 -0.26071 0.06888 -0.26071 -0.38627 0.89367 0.06888 0.89367 -1.62261" pbc="T T T"
O        0.61305000       9.14475000      10.47526000       0.00407700      -0.00183000      -0.00001900
O        8.60725000       3.53742000       8.72314000      -0.00188700       0.00053800      -0.00096400
O        4.34329000       1.70834000       7.13642000       0.00088300       0.00128400      -0.00050100
O        8.02393000       1.34951000       0.08630000      -0.00201900      -0.00144800       0.00122100
O        7.59145000       1.26686000       2.73749000      -0.00283900       0.00204100      -0.00996200
O        7.10378000       3.97132000       2.52983000       0.00365400      -0.00181400       0.00550900
O        4.78430000       0.89023000       4.47349000       0.00449000       0.00494200      -0.00176400
O        9.90486000       4.34284000       0.75515000      -0.00040000      -0.00237900      -0.00254100
O        9.47989000       3.52541000       3.40049000      -0.00147800      -0.00166300      -0.00254500
O        5.23658000       1.72306000       1.80972000       0.00391900      -0.00015400      -0.00166500
O        7.14308000       6.56615000       5.39329000       0.00090500      -0.00058800      -0.00092900
O        1.97193000       6.58376000       5.42568000      -0.00010200      -0.00042900      -0.00026900
O        1.51338000       6.52084000       8.07371000      -0.00604100       0.00582000       0.00286900
O        1.04465000       9.21555000       7.82402000      -0.00093700       0.00221600       0.00206500
O       -1.28036000       6.15660000       9.82161000      -0.00023200       0.00707700      -0.00185200
O        3.83894000       9.58596000       6.08729000      -0.00354300      -0.00794200       0.00361900
O        9.01163000       4.34324000       6.04743000      -0.00375400       0.00161500       0.00083200
O        3.92056000       0.90569000       9.78307000       0.00073900       0.00156200      -0.00595000
O        6.25059000       3.96285000       7.73327000      -0.00150000      -0.00131800      -0.00053200
O        6.70498000       1.26563000       8.04730000       0.00111600       0.00231400      -0.00095100
O        6.70621000       6.52162000       8.05462000      -0.00069100       0.00276100      -0.00010200
O        6.23752000       9.21098000       7.79014000      -0.00137900       0.00051500      -0.00097900
O        3.91439000       6.15417000       9.78850000       0.00227800      -0.00029200       0.00276900
O        9.02451000       9.59559000       6.05919000       0.00069100       0.00311700       0.00075000
O        8.59671000       8.77391000       8.70553000      -0.00040300      -0.00445800       0.00301500
O        4.34977000       6.97560000       7.13508000      -0.00219100      -0.00418600       0.00250400
O        6.68290000       9.14392000       5.13759000      -0.00222500       0.00066800      -0.00221300
O        3.40268000       8.77359000       8.74113000       0.00199100       0.00030200       0.00174000
O        8.01830000       6.59465000       0.08702000       0.00007900      -0.00099100      -0.00014500
O        7.11595000       9.21209000       2.48385000      -0.00033800       0.00243600       0.00120100
O        4.79426000       6.14451000       4.47788000       0.00226900      -0.00514600      -0.00193100
O        9.91081000       9.58370000       0.74827000      -0.00210700       0.00099200      -0.00022600
O        9.47281000       8.77554000       3.40285000       0.00232100       0.00032000       0.00277700
O        5.22209000       6.95951000       1.82239000       0.00143900       0.00116900      -0.00036900
O        5.80675000       3.89910000      10.44155000      -0.00312700       0.00203800       0.00288100
O        7.10441000       1.42411000       5.38201000       0.00652000      -0.00444400      -0.00602600
O        7.57871000       6.52746000       2.73064000       0.00428500      -0.00131000       0.00086900
O       -0.84720000       6.96007000       7.16545000       0.00191700       0.00060000       0.00561900
O        5.80574000       9.14610000      10.44670000       0.00157000       0.00223200      -0.00170600
O       -1.27165000       0.90376000       9.80869000       0.00082000       0.00242200      -0.00166000
O        2.83131000       1.34882000       0.11515000       0.00208000       0.00065300       0.00064100
O        2.39323000       1.27500000       2.76631000       0.00155700       0.00011800       0.00105600
O        1.93006000       3.96809000       2.51771000       0.00054000      -0.00129300       0.00436300
O       -0.40329000       0.90483000       4.50340000       0.00027500      -0.00561600       0.00093800
O        0.61838000       3.89969000      10.47848000      -0.00061700      -0.00066200      -0.00060600
O        1.05099000       3.97004000       7.82147000       0.00524000       0.00101000      -0.00133900
O        1.48927000       3.89679000       5.17055000       0.00105800      -0.00259000       0.00446400
O        3.86848000       4.31653000       6.06894000       0.00152500      -0.00291600      -0.00297700
O        3.41648000       3.53722000       8.72939000       0.00411400      -0.00053400      -0.00423200
O        0.03423000       6.95862000       1.85830000       0.00062900      -0.00172800       0.00706600
O        4.28122000       8.76599000       3.43006000      -0.00682200       0.00053900       0.00066200
O        4.72273000       4.33952000       0.77546000       0.00377800       0.00025500      -0.00224700
O        4.29388000       3.52608000       3.43638000       0.00182800      -0.00108700      -0.00430600
O        0.03548000       1.71892000       1.84819000      -0.00240900      -0.00018900      -0.00513000
O       -0.81553000       1.72176000       7.15518000       0.00000700       0.00543300       0.00064500
O        4.71915000       9.58700000       0.77749000      -0.00018400       0.00080900       0.00014300
O       -0.39303000       6.16674000       4.52460000      -0.00200100       0.00016800       0.00277300
O        1.92587000       9.21549000       2.51252000      -0.00322500       0.00027700       0.00250200
O        2.39434000       6.51813000       2.76728000      -0.00182500      -0.00130600       0.00234000
O        2.82706000       6.59325000       0.11357000      -0.00009700       0.00066300       0.00110700
O        1.48439000       9.13671000       5.17056000      -0.00476100       0.00634900      -0.00030900
O        1.95511000       1.34472000       5.41952000       0.00222600       0.00041000      -0.00011200
O        1.52915000       1.27554000       8.07730000       0.00241700      -0.00326800      -0.00043100
Zr       0.37742000       0.22753000       6.41635000      -0.00574100       0.00439300       0.00443700
Zr       2.19559000       5.01744000       9.48078000      -0.00519800       0.00140700       0.00134100
Zr       7.38751000      10.26371000       9.45058000      -0.00364700      -0.00054900       0.00422000
Zr       2.62782000       2.85142000       6.82677000       0.00188800      -0.00084800       0.00115300
Zr       7.81711000       8.09379000       6.80043000      -0.00582000      -0.00262600      -0.00561800
Zr       5.12781000       7.64574000       9.04589000      -0.00229900      -0.00028200      -0.00017500
Zr       0.81474000       2.39243000       3.76180000       0.00243900      -0.00022000      -0.00404800
Zr       3.51298000       2.85002000       1.52319000      -0.00399700       0.00444200      -0.00505100
Zr       3.07234000       5.01179000       4.17432000       0.00097900      -0.00175700      -0.00043600
Zr       5.55581000       5.48676000       6.39964000      -0.00175100       0.00304900      -0.00923800
Zr       6.00246000       7.63411000       3.73014000      -0.00183000      -0.00591300       0.00335000
Zr      -0.06393000       7.64085000       9.07042000       0.00278500      -0.00054100       0.00480100
Zr       8.26950000      10.25347000       4.14036000      -0.00463700      -0.00102400       0.00382300
Zr       2.19486000      10.26367000       9.48186000      -0.00019400       0.00197300      -0.00127700
Zr       0.36122000       5.47737000       6.40925000       0.00126000       0.00461000       0.00433400
Zr       6.44426000       0.22492000       1.07762000       0.00394800       0.00406800      -0.00460700
Zr       8.25583000       5.00676000       4.13562000      -0.00557000       0.00098600      -0.00115500
Zr       8.69873000       2.84922000       1.49933000       0.00971100      -0.00154800      -0.00096300
Zr       6.01344000       2.38310000       3.72476000       0.00098500      -0.00182700       0.00210500
Zr       0.81577000       7.63250000       3.76530000      -0.00345000      -0.00405100       0.00310800
Zr       3.50450000       8.09741000       1.51944000      -0.00031100      -0.00304700       0.00467300
Zr       3.06790000      10.25884000       4.17223000       0.00997000      -0.00390600       0.00303900
Zr       1.24910000       5.47285000       1.11186000       0.00209800      -0.00436200      -0.00149200
Zr       5.55254000       0.23168000       6.38449000       0.00021100      -0.00339400      -0.00457300
Zr       7.39439000       5.01526000       9.45067000       0.00288900       0.00643400       0.00125100
Zr       7.83453000       2.84961000       6.79213000      -0.00043500      -0.00787400       0.00198900
Zr       5.12937000       2.38712000       9.03570000      -0.00296600      -0.00330400       0.00054700
Zr       2.62343000       8.09548000       6.82936000       0.00080200      -0.00063900      -0.00157700
Zr      -0.05846000       2.39592000       9.06995000       0.00113900       0.00541800      -0.00137000
Zr       6.43922000       5.47652000       1.08073000      -0.00406700       0.00626700      -0.00131100
Zr       8.69665000       8.09199000       1.49188000      -0.00283100       0.00312900      -0.00422200
Zr       1.24888000       0.22736000       1.10574000      -0.00046600      -0.00254800       0.00149500
