95
Lattice="10.381444 0.0 -0.053824 0.0 10.490337 0.0 -1.746774 0.0 10.614441" Properties=species:S:1:pos:R:3:forces:R:3 energy=-910.05993657 stress="-0.06817 -0.24535 0.07191 -0.24535 -0.39718 0.87576 0.07191 0.87576 -1.63399" pbc="T T T"
O        0.61352000       9.14467000      10.47538000      -0.00005000      -0.00030600       0.00360100
O        8.60725000       3.53756000       8.72331000      -0.00085600       0.00263000      -0.00053900
O        4.34306000       1.70786000       7.13637000       0.00325300      -0.00078900      -0.00244200
O        8.02427000       1.34961000       0.08618000      -0.00151400      -0.00210500      -0.00263000
O        7.59144000       1.26670000       2.73687000       0.00067500       0.00054400      -0.00684700
O        7.10430000       3.97115000       2.52993000       0.00107500       0.00080900       0.00341400
O        4.78477000       0.89014000       4.47310000      -0.00330000      -0.00150600       0.00088300
O        9.90493000       4.34293000       0.75510000       0.00333500       0.00038400      -0.00323300
O        9.48011000       3.52518000       3.40042000      -0.00187600       0.00162900      -0.00057900
O        5.23739000       1.72331000       1.80893000      -0.00313200       0.00505800       0.00067300
O        7.14276000       6.56642000       5.39328000       0.00307400       0.00061700      -0.00381800
O        1.97215000       6.58365000       5.42598000      -0.00071800      -0.00275100       0.00010000
O        1.51271000       6.52141000       8.07415000      -0.00211500       0.00053000       0.00341200
O        1.04447000       9.21600000       7.82437000      -0.00047100      -0.00043800       0.00110900
O       -1.28079000       6.15738000       9.82197000       0.00139100       0.00134700       0.00245900
O        3.83827000       9.58560000       6.08738000       0.00612700      -0.00235300       0.00210800
O        9.01128000       4.34347000       6.04739000      -0.00149200       0.00243600       0.00343200
O        3.92073000       0.90577000       9.78266000      -0.00000900      -0.00086400      -0.00486800
O        6.25049000       3.96256000       7.73304000       0.00034400       0.00435800      -0.00192300
O        6.70511000       1.26593000       8.04701000       0.00090800      -0.00366300      -0.00232400
O        6.70597000       6.52190000       8.05446000       0.00090900       0.00155800      -0.00155100
O        6.23698000       9.21098000       7.78974000       0.00070700       0.00181900      -0.00143800
O        3.91446000       6.15451000       9.78878000      -0.00321500      -0.00335900       0.00163600
O        9.02400000       9.59636000       6.05971000      -0.00528400      -0.00363100       0.00176500
O        8.59608000       8.77369000       8.70583000      -0.00171100      -0.00172500       0.00110800
O        4.34942000       6.97499000       7.13502000      -0.00406200      -0.00206400       0.00154500
O        6.68216000       9.14421000       5.13718000       0.00074800      -0.00363200       0.00009200
O        3.40238000       8.77326000       8.74150000       0.00294300       0.00096300      -0.00189800
O        8.01824000       6.59470000       0.08684000       0.00104700       0.00295700       0.00299900
O        7.11612000       9.21221000       2.48355000       0.00013700      -0.00169900       0.00166100
O        4.79442000       6.14379000       4.47766000       0.00236300      -0.00177500      -0.00327400
O        9.91093000       9.58390000       0.74821000      -0.00319600      -0.00031200       0.00037600
O        9.47317000       8.77559000       3.40316000      -0.00557700       0.00277900       0.00074500
O        5.22226000       6.95961000       1.82249000      -0.00001500       0.00096500       0.00029100
O        5.80665000       3.89936000      10.44151000      -0.00101600       0.00089400       0.00217700
O        7.10501000       1.42373000       5.38135000       0.00399700      -0.00374600       0.00012500
O        7.57890000       6.52733000       2.73071000       0.00134100       0.00145200       0.00059100
O       -0.84749000       6.96005000       7.16627000      -0.00105100       0.00218300       0.00225700
O        5.80601000       9.14634000      10.44620000      -0.00020100       0.00043500       0.00151300
O       -1.27131000       0.90381000       9.80829000      -0.00011900       0.00016800       0.00054500
O        2.83167000       1.34879000       0.11517000      -0.00067400       0.00237100       0.00085400
O        2.39335000       1.27478000       2.76626000       0.00098600       0.00061200      -0.00030800
O        1.92990000       3.96779000       2.51792000       0.00273300       0.00011500       0.00265500
O       -0.40337000       0.90437000       4.50342000       0.00307700      -0.00040800      -0.00241900
O        0.61823000       3.89962000      10.47854000       0.00056800       0.00293300       0.00087900
O        1.05178000       3.97025000       7.82187000       0.00037200       0.00374600      -0.00124500
O        1.48940000       3.89657000       5.17103000       0.00061900      -0.00166000       0.00146500
O        3.86925000       4.31551000       6.06828000       0.00089600      -0.00036500      -0.00402600
O        3.41720000       3.53776000       8.72857000      -0.00167500       0.00293300       0.00125300
O        0.03410000       6.95835000       1.85922000       0.00055800      -0.00566600      -0.00044900
O        4.28061000       8.76540000       3.43046000      -0.00080800      -0.00164800       0.00014700
O        4.72289000       4.33937000       0.77503000       0.00132900       0.00192000      -0.00225600
O        4.29420000       3.52567000       3.43586000      -0.00334800       0.00314800      -0.00364700
O        0.03553000       1.71914000       1.84779000       0.00337100      -0.00459300      -0.00339100
O       -0.81510000       1.72291000       7.15481000       0.00171600       0.00263800       0.00339300
O        4.71914000       9.58743000       0.77782000      -0.00086300      -0.00236800       0.00102400
O       -0.39325000       6.16716000       4.52559000      -0.00376000      -0.00278600       0.00174700
O        1.92531000       9.21530000       2.51284000       0.00111400       0.00039800      -0.00068700
O        2.39443000       6.51791000       2.76751000      -0.00072800      -0.00390300       0.00081400
O        2.82692000       6.59325000       0.11377000       0.00080900      -0.00198200       0.00219800
O        1.48379000       9.13694000       5.17088000      -0.00156100       0.00183000      -0.00111700
O        1.95513000       1.34444000       5.41944000       0.00164700       0.00259000       0.00119700
O        1.52914000       1.27550000       8.07749000       0.00233900       0.00068100      -0.00153300
Zr       0.37697000       0.22776000       6.41675000       0.00203600       0.00128900      -0.00137100
Zr       2.19544000       5.01756000       9.48079000       0.00450100       0.00230200       0.00022500
Zr       7.38724000      10.26392000       9.45057000       0.00293500       0.00080400      -0.00123200
Zr       2.62798000       2.85134000       6.82681000       0.00102000      -0.00347000      -0.00299900
Zr       7.81668000       8.09374000       6.80020000       0.00063500       0.00088000       0.00255000
Zr       5.12758000       7.64593000       9.04566000      -0.00075100      -0.00370800       0.00042600
Zr       0.81477000       2.39221000       3.76167000       0.00203100      -0.00214900       0.00304600
Zr       3.51295000       2.85017000       1.52292000       0.00448900      -0.00451500      -0.00037500
Zr       3.07246000       5.01130000       4.17445000      -0.00178700      -0.00562000      -0.00141300
Zr       5.55587000       5.48673000       6.39911000      -0.00125200      -0.00569700       0.00248300
Zr       6.00240000       7.63356000       3.73032000      -0.00033900       0.00203500      -0.00185600
Zr      -0.06415000       7.64113000       9.07103000       0.00113100       0.00402500      -0.00043700
Zr       8.26925000      10.25372000       4.14046000      -0.00020700      -0.00362700      -0.00150000
Zr       2.19490000      10.26382000       9.48186000      -0.00030200       0.00008500       0.00051100
Zr       0.36110000       5.47772000       6.40989000      -0.00360900       0.00100000      -0.00116100
Zr       6.44476000       0.22509000       1.07726000      -0.00201300       0.00316400      -0.00075000
Zr       8.25570000       5.00674000       4.13553000       0.00139500      -0.00459100       0.00019800
Zr       8.69929000       2.84919000       1.49903000      -0.00144600       0.00209200       0.00123500
Zr       6.01366000       2.38276000       3.72464000       0.00445400       0.00316700      -0.00578700
Zr       0.81570000       7.63216000       3.76554000      -0.00453900       0.00292700       0.00407400
Zr       3.50458000       8.09734000       1.51975000      -0.00098000       0.00269200       0.00241600
Zr       3.06802000      10.25849000       4.17235000      -0.00077300      -0.00027300       0.00300500
Zr       1.24939000       5.47260000       1.11195000      -0.00509100       0.00310000       0.00317500
Zr       5.55231000       0.23126000       6.38399000       0.00226500       0.00202000      -0.00058900
Zr       7.39448000       5.01580000       9.45091000      -0.00372100      -0.00055700      -0.00438400
Zr       7.83452000       2.84935000       6.79231000      -0.00373900      -0.00192600      -0.00200000
Zr       5.12921000       2.38697000       9.03536000       0.00302900       0.00457100       0.00155100
Zr       2.62314000       8.09526000       6.82937000      -0.00375400       0.00325100       0.00206400
Zr      -0.05827000       2.39629000       9.06994000      -0.00289200       0.00006600      -0.00154300
Zr       6.43922000       5.47670000       1.08074000       0.00108800      -0.00082100      -0.00322300
Zr       8.69670000       8.09236000       1.49170000       0.00196700      -0.00073600       0.00314500
Zr       1.24900000       0.22728000       1.10575000       0.00210900      -0.00211500       0.00072000
