12
Lattice="5.190722 0.0 -0.026912 0.0 5.245168 0.0 -0.873387 0.0 5.307221" Properties=species:S:1:pos:R:3:forces:R:3 energy=-115.12055895 stress="0.02037 0.0 -0.01 0.0 0.01246 0.0 -0.01 0.0 0.01365" pbc="T T T"
Zr       1.24835000       0.22822000       1.10709000      -0.00034800       0.00017700       0.00033000
Zr       3.06898000       5.01695000       4.17322000       0.00034800      -0.00017700      -0.00033000
Zr       3.50567000       2.85080000       1.51961000       0.00034800       0.00017700      -0.00033000
Zr       0.81166000       2.39437000       3.76070000      -0.00034800      -0.00017700       0.00033000
O        0.03498000       1.71619000       1.85217000      -0.00084000      -0.00074000       0.00049700
O        4.28236000       3.52898000       3.42814000       0.00084000       0.00074000      -0.00049700
O        4.71905000       4.33878000       0.77453000       0.00084000      -0.00074000      -0.00049700
O       -0.40171000       0.90639000       4.50578000      -0.00084000       0.00074000       0.00049700
O        1.92442000       3.96972000       2.51347000       0.00052000       0.00019800      -0.00033300
O        2.39291000       1.27545000       2.76684000      -0.00052000      -0.00019800       0.00033300
O        2.82960000       1.34713000       0.11323000      -0.00052000       0.00019800       0.00033300
O        1.48773000       3.89803000       5.16708000       0.00052000      -0.00019800      -0.00033300
