95
Lattice="10.381444 0.0 -0.053824 0.0 10.490337 0.0 -1.746774 0.0 10.614441" Properties=species:S:1:pos:R:3:forces:R:3 energy=-895.39035685 stress="5.53227 -0.43171 -1.00279 -0.43171 1.66022 -0.53277 -1.00279 -0.53277 -2.51277" pbc="T T T"
O        0.61594000       9.14412000      10.47627000      -0.07220300      -0.02743000       0.03723000
O        8.60748000       3.52493000       8.71468000       0.03158900       0.24062100      -0.07346200
O        4.34925000       1.70918000       7.13218000       0.05943100      -0.02331800      -0.00116700
O        6.72257000       3.84543000       5.10099000       0.53906500      -0.39173800      -0.19209200
O        8.01974000       1.34472000       0.08687000       0.04995100       0.13502800      -0.03490200
O        7.58529000       1.27288000       2.73626000       0.00298200       0.15479200       0.09682700
O        7.11437000       3.96966000       2.47385000      -0.03985400      -0.01516300       0.12019900
O        4.78171000       0.89936000       4.48029000       0.15628200       0.24031300      -0.01524100
O        9.06014000       4.33875000       6.05485000      -0.03053900      -0.07267100       0.02800100
O        9.91404000       4.33755000       0.75199000      -0.15190300      -0.07776800      -0.11956000
O        5.22170000       1.71439000       1.81743000       0.01879300       0.03309700       0.00576800
O        7.18788000       6.62349000       5.34906000       0.72347200       0.17188700      -0.55002700
O        1.94794000       6.59432000       5.41469000      -0.04686100      -0.05708400       0.02944300
O        1.51849000       6.52138000       8.07822000       0.01974200      -0.05831700      -0.03816300
O        1.04826000       9.21959000       7.82494000      -0.02760000      -0.07152900       0.00656900
O       -1.26793000       6.15490000       9.81486000      -0.16773400      -0.12542800      -0.17035500
O        3.84916000       9.58807000       6.08177000       0.06750400      -0.04667600       0.04563800
O        9.48570000       3.52021000       3.39563000      -0.26012900       0.24666800       0.12770600
O        3.40402000       8.78430000       8.74142000       0.18765900      -0.05972800       0.07255900
O        3.90896000       0.90062000       9.78675000       0.11650500       0.17640400      -0.11567500
O        6.70914000       1.26946000       8.04899000      -0.00084700      -0.00671700      -0.10744000
O        6.73874000       6.55458000       8.09366000       0.64310700       0.49992700       0.25029000
O        6.23994000       9.22517000       7.79597000       0.02181000      -0.10323200      -0.11979100
O        3.90507000       6.15142000       9.79524000      -0.01278300       0.01077100       0.02716700
O        9.04272000       9.59033000       6.05220000      -0.29477100      -0.38032000       0.06773600
O        8.60129000       8.77651000       8.71427000      -0.01695600      -0.03251700      -0.04324700
O        4.32004000       6.99939000       7.15092000      -0.04495300       0.27369300       0.16463800
O        6.67882000       9.15351000       5.13827000      -0.10654600       0.05372000       0.18761200
O        6.27824000       3.92146000       7.84296000       0.17476200      -0.44312500       0.58875400
O        8.02138000       6.59270000       0.09156000      -0.03974000      -0.20408700      -0.06623900
O        7.11480000       9.21736000       2.48267000       0.08179500       0.00271500       0.08899100
O        4.77626000       6.18200000       4.43411000      -0.19738300       0.22175800      -0.40501800
O        9.91215000       9.58478000       0.74748000       0.06631700      -0.01229300       0.06725800
O        9.47521000       8.77363000       3.39983000       0.01394100       0.07426300       0.01916200
O        5.21869000       6.95875000       1.82393000       0.06339500      -0.18017600       0.07756500
O        5.80144000       3.89700000      10.45766000      -0.07948100       0.14587400       0.07807900
O        7.14569000       1.33459000       5.39194000      -0.00784400      -0.06191600       0.12073900
O        7.58470000       6.52690000       2.72778000      -0.02536400      -0.16846400       0.04938500
O       -0.82909000       6.96239000       7.16257000      -0.18466200       0.04887700      -0.07827100
O        5.80667000       9.14874000      10.45204000       0.05891400      -0.10682000      -0.11007200
O       -1.27447000       0.90558000       9.81356000      -0.06009900      -0.01235900       0.01803300
O        1.48613000       3.90006000       5.16659000      -0.16795000       0.06922700       0.01695300
O        2.83056000       1.34642000       0.11324000      -0.06412400      -0.00169900       0.03516200
O        2.39364000       1.27489000       2.76581000      -0.02211000      -0.01737900      -0.05882600
O        1.92334000       3.96758000       2.51033000       0.02747100      -0.02520300       0.00941300
O        0.61473000       3.89821000      10.47515000       0.08091200       0.03785900      -0.06448000
O       -0.39935000       0.90731000       4.50514000      -0.13221900      -0.03960000      -0.10245300
O        1.04866000       3.96865000       7.82470000       0.00422500       0.08731800      -0.00802900
O        3.79999000       4.31831000       6.07449000      -0.27358200       0.00798200      -0.10214700
O        0.03685000       6.96064000       1.85170000      -0.07816700       0.06653400      -0.01269700
O        4.27564000       8.77949000       3.42594000       0.12842900      -0.00493100       0.12407800
O        1.95657000       1.34441000       5.41759000       0.04210500       0.07946600      -0.00114100
O        4.71899000       9.58115000       0.77589000       0.04890200      -0.04745200       0.08669000
O        4.27750000       3.52599000       3.42022000       0.19579600      -0.04521500       0.09058000
O        0.03798000       1.71393000       1.85175000      -0.08959600      -0.04127200      -0.07819600
O        3.40166000       3.52646000       8.74179000       0.08544300      -0.01724100       0.08174000
O       -0.39237000       6.15843000       4.50531000      -0.35178800      -0.19319500       0.07691700
O        1.92593000       9.21460000       2.51200000      -0.10364700       0.07416600      -0.05796700
O        2.39371000       6.52556000       2.76192000      -0.04220400       0.05855400       0.06722300
O        2.83127000       6.59320000       0.11505000       0.03381000      -0.01316800      -0.08003200
O        1.48820000       9.14649000       5.16296000       0.01686700      -0.04026500      -0.12044400
O       -0.82676000       1.70950000       7.16323000      -0.38372300       0.26960500      -0.07720800
O        4.71952000       4.33928000       0.77636000       0.08602800       0.02223500      -0.01346700
O        1.51851000       1.27149000       8.07820000       0.00273100      -0.00603700       0.08221800
Zr       0.37035000       0.22744000       6.41374000       0.25188400      -0.06421100       0.20758500
Zr       2.19851000       5.01899000       9.46676000      -0.33806300       0.04890100       0.17491500
Zr       7.77589000       8.03635000       6.78539000      -0.28455900      -0.14848500       0.00373500
Zr       2.65467000       2.87423000       6.82161000      -0.39050200      -0.33512300      -0.06223200
Zr       5.14204000       7.59757000       8.98475000      -0.06776000       0.13819700      -0.05609400
Zr       0.80640000       2.39347000       3.75929000       0.33269300       0.22531000       0.01872400
Zr       3.50169000       2.84917000       1.52223000      -0.19949100      -0.04085600      -0.01524600
Zr       3.11591000       5.02858000       4.22254000      -0.02178400       0.02185300       0.02610400
Zr       7.38140000      10.26214000       9.45222000      -0.24987200      -0.07726400      -0.06432900
Zr       6.01344000       7.60198000       3.79654000       0.18651600       0.22662000      -0.12976500
Zr       2.65295000       8.05889000       6.82615000      -0.30425400       0.17595400       0.02876900
Zr       8.25490000      10.26267000       4.14989000      -0.13710800       0.00542300      -0.04392600
Zr       2.19030000      10.26160000       9.47553000      -0.15106100       0.12010700      -0.11682800
Zr       0.36413000       5.47436000       6.41707000       0.42669900      -0.01377700      -0.07614800
Zr       6.44976000       0.22878000       1.08416000       0.05276800      -0.10063500      -0.02835800
Zr       8.19053000       5.01245000       4.19733000      -0.13101800       0.28775200      -0.07631300
Zr       8.69052000       2.85440000       1.49479000       0.12574500       0.00362700      -0.02119800
Zr       6.02096000       2.43059000       3.76972000      -0.06390500      -0.37033000      -0.26266800
Zr       0.81064000       7.63870000       3.76573000       0.30290400       0.02762500      -0.02927500
Zr       3.49415000       8.09726000       1.51959000      -0.11527500      -0.11375800       0.07602800
Zr       3.06660000      10.26545000       4.17194000      -0.15771000       0.03044500       0.00028500
Zr       1.24514000       5.47208000       1.10674000       0.16988600      -0.17562700       0.11186800
Zr       5.57824000       0.22836000       6.38628000       0.13017100      -0.09900600       0.04925100
Zr       7.34564000       5.02206000       9.40017000       0.00360400       0.02185200       0.15215900
Zr       7.76516000       2.91453000       6.77499000      -0.13408600      -0.21997900       0.06933900
Zr       5.14786000       2.42984000       9.02317000       0.22456100      -0.14828400       0.05379700
Zr      -0.06292000       7.63495000       9.06190000       0.13318900       0.24752900       0.15779200
Zr      -0.06343000       2.39605000       9.06326000       0.19354500      -0.06490800      -0.11310600
Zr       6.45412000       5.46092000       1.08042000       0.02043900       0.19494200       0.03593100
Zr       8.69280000       8.09435000       1.49472000      -0.33525500       0.00824000      -0.09653100
Zr       1.24709000       0.22842000       1.10767000       0.25472900      -0.08395000      -0.00278300
