95
Lattice="10.381444 0.0 -0.053824 0.0 10.490337 0.0 -1.746774 0.0 10.614441" Properties=species:S:1:pos:R:3:forces:R:3 energy=-895.3971919 stress="6.35162 -0.25148 -0.90378 -0.25148 2.21546 -0.58927 -0.90378 -0.58927 -2.0652" pbc="T T T"
O        0.61610000       9.14420000      10.47645000      -0.08018600      -0.03090500       0.03844400
O        8.60821000       3.52455000       8.71526000       0.03083600       0.26758700      -0.09097900
O        4.34896000       1.70852000       7.13216000       0.07551700      -0.01516100      -0.00107100
O        6.72674000       3.84047000       5.09729000       0.47673600      -0.29990700      -0.10208100
O        8.01969000       1.34450000       0.08692000       0.05466200       0.15105700      -0.03642600
O        7.58545000       1.27264000       2.73592000      -0.00177200       0.17479600       0.11378300
O        7.11429000       3.96966000       2.47265000      -0.04426300      -0.02259700       0.16767700
O        4.78102000       0.89869000       4.48042000       0.18813500       0.27919900      -0.02236300
O        9.06238000       4.33875000       6.05485000      -0.10067000      -0.08875900       0.02419600
O        9.91445000       4.33744000       0.75240000      -0.17261200      -0.08412300      -0.13338900
O        5.22132000       1.71422000       1.81669000       0.02938400       0.03594500       0.02106800
O        7.19174000       6.62643000       5.34486000       0.71677500       0.11733200      -0.50224600
O        1.94716000       6.59451000       5.41414000      -0.03565200      -0.06638800       0.04309600
O        1.51840000       6.52145000       8.07862000       0.02255100      -0.06433700      -0.04894400
O        1.04799000       9.22003000       7.82534000      -0.02866200      -0.08505400       0.00109800
O       -1.26726000       6.15522000       9.81504000      -0.19242400      -0.13987400      -0.18569500
O        3.84949000       9.58846000       6.08177000       0.06777000      -0.05481400       0.04687100
O        9.48689000       3.51938000       3.39510000      -0.31101600       0.27984200       0.14562700
O        3.40356000       8.78525000       8.74199000       0.20781500      -0.07565700       0.07265400
O        3.90834000       0.90008000       9.78681000       0.13615900       0.19718300      -0.12104700
O        6.70903000       1.26890000       8.04917000       0.00184600       0.00014900      -0.12204000
O        6.74143000       6.55779000       8.09805000       0.65384400       0.48235700       0.17916800
O        6.23977000       9.22614000       7.79618000       0.02506700      -0.13265900      -0.13452800
O        3.90407000       6.15140000       9.79611000       0.00833300       0.01321800       0.01510800
O        9.04332000       9.59093000       6.05195000      -0.32834600      -0.41672200       0.07486900
O        8.60144000       8.77673000       8.71482000      -0.01703900      -0.03589900      -0.05235400
O        4.31700000       7.00298000       7.15266000       0.02331000       0.21287700       0.13818600
O        6.67885000       9.15448000       5.13809000      -0.11578300       0.03925400       0.20954700
O        6.28169000       3.91691000       7.84760000       0.10674800      -0.38394000       0.53554400
O        8.02148000       6.59274000       0.09206000      -0.04645800      -0.22408300      -0.07752200
O        7.11476000       9.21760000       2.48230000       0.09030000       0.00168800       0.10260200
O        4.77506000       6.18487000       4.42989000      -0.19658400       0.17798900      -0.36007500
O        9.91237000       9.58486000       0.74747000       0.06858200      -0.01511800       0.07427900
O        9.47541000       8.77358000       3.39970000       0.00795200       0.08433000       0.02501400
O        5.21802000       6.95850000       1.82380000       0.07821400      -0.18771100       0.08266900
O        5.80110000       3.89690000      10.45863000      -0.08079300       0.15906400       0.06583500
O        7.14557000       1.33341000       5.39179000      -0.00632700      -0.02839400       0.12726500
O        7.58480000       6.52749000       2.72664000      -0.03201900      -0.19951900       0.07590500
O       -0.82821000       6.96249000       7.16287000      -0.22134000       0.05301300      -0.09108500
O        5.80682000       9.14927000      10.45247000       0.06230200      -0.12020200      -0.12149500
O       -1.27441000       0.90550000       9.81361000      -0.06646500      -0.01315300       0.02009700
O        1.48598000       3.90025000       5.16655000      -0.18824900       0.06773400       0.01474900
O        2.83065000       1.34636000       0.11324000      -0.07023600      -0.00217400       0.04000600
O        2.39371000       1.27483000       2.76571000      -0.02479800      -0.01870500      -0.06362000
O        1.92323000       3.96738000       2.51003000       0.02961200      -0.02561800       0.01141200
O        0.61476000       3.89823000      10.47523000       0.08686300       0.03996500      -0.06910600
O       -0.39913000       0.90739000       4.50507000      -0.15096100      -0.04553200      -0.11035200
O        1.04843000       3.96855000       7.82508000       0.00699000       0.09749700      -0.01751700
O        3.79568000       4.31638000       6.07380000      -0.19850900       0.05481900      -0.09771000
O        0.03702000       6.96057000       1.85166000      -0.08984900       0.07374300      -0.01441700
O        4.27500000       8.78000000       3.42573000       0.14942200      -0.01210400       0.13587700
O        1.95661000       1.34416000       5.41732000       0.04338000       0.08885500       0.00179400
O        4.71898000       9.58089000       0.77601000       0.05607500      -0.04492200       0.09319000
O        4.27704000       3.52571000       3.41947000       0.23120800      -0.04913000       0.11350600
O        0.03826000       1.71371000       1.85171000      -0.10466300      -0.04085700      -0.08583300
O        3.40097000       3.52622000       8.74240000       0.10788100      -0.01723900       0.08076500
O       -0.39149000       6.15907000       4.50527000      -0.39437100      -0.22164600       0.08224600
O        1.92607000       9.21457000       2.51186000      -0.11615600       0.08227500      -0.06090800
O        2.39379000       6.52602000       2.76145000      -0.04985000       0.05808800       0.07684700
O        2.83143000       6.59328000       0.11522000       0.03281400      -0.01485600      -0.08894800
O        1.48824000       9.14680000       5.16258000       0.01498200      -0.04704700      -0.12628700
O       -0.82566000       1.70886000       7.16360000      -0.43346400       0.29877100      -0.09130300
O        4.71957000       4.33933000       0.77653000       0.09161600       0.02043900      -0.01614400
O        1.51841000       1.27112000       8.07859000       0.00250000      -0.00322900       0.08276900
Zr       0.36992000       0.22737000       6.41369000       0.29117700      -0.07131400       0.22630500
Zr       2.19878000       5.01918000       9.46546000      -0.36790100       0.04675800       0.21358400
Zr       7.77145000       8.03072000       6.78402000      -0.22043100      -0.05894100       0.04091900
Zr       2.65678000       2.87645000       6.82112000      -0.47233100      -0.41231900      -0.05209000
Zr       5.14327000       7.59361000       8.97944000      -0.10325700       0.22307300       0.04540300
Zr       0.80591000       2.39339000       3.75915000       0.37726800       0.25105900       0.02876300
Zr       3.50131000       2.84901000       1.52248000      -0.21310700      -0.03348100      -0.02211000
Zr       3.12034000       5.02968000       4.22719000      -0.11022300       0.00065900      -0.05745800
Zr       7.38093000      10.26214000       9.45210000      -0.26481500      -0.08373200      -0.07230700
Zr       6.01448000       7.59844000       3.80247000       0.18595500       0.32539900      -0.27183000
Zr       2.65490000       8.05539000       6.82608000      -0.37900800       0.26505100       0.02782300
Zr       8.25445000      10.26272000       4.15023000      -0.13541500       0.00014000      -0.05726500
Zr       2.18980000      10.26155000       9.47507000      -0.15905900       0.13239200      -0.12435600
Zr       0.36311000       5.47445000       6.41733000       0.48966400      -0.01554900      -0.09001000
Zr       6.45077000       0.22884000       1.08453000       0.04295700      -0.11407700      -0.04038100
Zr       8.18400000       5.01203000       4.20214000       0.03578300       0.37298700      -0.20200200
Zr       8.68997000       2.85474000       1.49499000       0.15227000      -0.00404300      -0.02909400
Zr       6.02271000       2.43401000       3.77312000      -0.14259400      -0.51260400      -0.40207300
Zr       0.81054000       7.63862000       3.76621000       0.33273400       0.02578800      -0.03707900
Zr       3.49307000       8.09738000       1.51959000      -0.10617000      -0.13439200       0.08358400
Zr       3.06637000      10.26576000       4.17182000      -0.17331100       0.02556300       0.00769700
Zr       1.24484000       5.47195000       1.10671000       0.19573800      -0.18843800       0.12254400
Zr       5.57942000       0.22837000       6.38618000       0.10954000      -0.11218200       0.06716800
Zr       7.34181000       5.02255000       9.39514000       0.08439800       0.01369600       0.26870800
Zr       7.75970000       2.92054000       6.77263000      -0.01722100      -0.37209900       0.17195400
Zr       5.14965000       2.43318000       9.02149000       0.20797600      -0.22280600       0.08408700
Zr      -0.06304000       7.63452000       9.06133000       0.14775000       0.27716500       0.17880600
Zr      -0.06359000       2.39621000       9.06282000       0.21272400      -0.06504300      -0.11284600
Zr       6.45554000       5.45975000       1.08044000      -0.00589400       0.24523300       0.03193400
Zr       8.69246000       8.09420000       1.49491000      -0.36174600       0.00652800      -0.11151500
Zr       1.24697000       0.22844000       1.10773000       0.27988800      -0.09150300      -0.00514100
