95
Lattice="10.381444 0.0 -0.053824 0.0 10.490337 0.0 -1.746774 0.0 10.614441" Properties=species:S:1:pos:R:3:forces:R:3 energy=-895.62068694 stress="5.78824 -0.40722 -1.90427 -0.40722 2.71117 -0.66169 -1.90427 -0.66169 -1.19232" pbc="T T T"
O        0.61240000       9.14286000      10.47894000       0.01002900       0.03906200       0.03323700
O        8.61185000       3.53721000       8.71224000       0.33066200       0.10851500      -0.00594800
O        4.35203000       1.70589000       7.13202000      -0.06719500       0.03582800      -0.05227800
O        6.76281000       3.81123000       5.08173000       0.07383300      -0.14372900       0.11768300
O        8.02233000       1.35161000       0.08519000       0.03611900      -0.00835100      -0.04383000
O        7.58579000       1.28093000       2.74079000      -0.00590800      -0.03515400      -0.00319500
O        7.11182000       3.96848000       2.47790000      -0.05190700       0.03906500      -0.00417400
O        4.78874000       0.91116000       4.47965000      -0.16233100      -0.04262200       0.00163100
O        9.06348000       4.33419000       6.05609000       0.04196100       0.01868800       0.14738800
O        9.90672000       4.33280000       0.74671000       0.13909400       0.06978700      -0.06207000
O        5.22178000       1.71558000       1.81571000      -0.03246900      -0.06640500      -0.09424700
O        7.23929000       6.64066000       5.30738000       0.33809000       0.09982600      -0.24430600
O        1.94315000       6.59163000       5.41484000       0.01282600       0.03820500      -0.01575500
O        1.51928000       6.51835000       8.07720000      -0.02894400       0.06510300      -0.05251100
O        1.04579000       9.21691000       7.82651000      -0.01179500       0.00728400       0.02121300
O       -1.27524000       6.14893000       9.80600000       0.16644700       0.01470000      -0.02503800
O        3.85389000       9.58673000       6.08418000      -0.14077100      -0.03555900      -0.02787500
O        9.47426000       3.53142000       3.40110000       0.14265900       0.01083600       0.05101300
O        3.41291000       8.78405000       8.74731000      -0.15106200       0.20092300       0.10484800
O        3.91357000       0.90867000       9.78077000      -0.09339200      -0.09050800      -0.02313100
O        6.70883000       1.26733000       8.04340000       0.06705900      -0.18802900      -0.04420300
O        6.78247000       6.59147000       8.11949000       0.36672700       0.24024300       0.05289400
O        6.24057000       9.22204000       7.78986000      -0.06622700      -0.05166800       0.00284200
O        3.90172000       6.15204000       9.79929000      -0.06366400       0.04327900      -0.04457200
O        9.02815000       9.57124000       6.05510000       0.13093500      -0.05121200       0.09233400
O        8.60098000       8.77551000       8.71367000       0.04235700       0.06870300       0.06498300
O        4.30969000       7.02392000       7.16461000       0.02909600       0.07592300      -0.05234500
O        6.67301000       9.15921000       5.14834000      -0.21073000      -0.02417100       0.06906100
O        6.29677000       3.88451000       7.88802000      -0.10878600      -0.03015100       0.20365200
O        8.01938000       6.58135000       0.08946000      -0.03496400      -0.02713400       0.01735500
O        7.11930000       9.21834000       2.48654000      -0.00322600       0.00056400       0.04971600
O        4.76162000       6.20202000       4.39963000      -0.08217500       0.14241100      -0.22126400
O        9.91651000       9.58431000       0.75125000      -0.02288800      -0.06406200       0.04619900
O        9.47638000       8.77777000       3.40061000       0.08195500      -0.00943000       0.00186800
O        5.22019000       6.94818000       1.82769000      -0.12360100       0.07079100       0.05771700
O        5.79600000       3.90479000      10.46471000      -0.07396300       0.05342700       0.07727000
O        7.14492000       1.32865000       5.39789000       0.00891100      -0.16457100       0.07806800
O        7.58344000       6.51891000       2.72734000      -0.03324900       0.05039800      -0.15420300
O       -0.83711000       6.96548000       7.15904000       0.08961400      -0.06770200      -0.04535800
O        5.81043000       9.14456000      10.44746000      -0.00716100      -0.05439000      -0.01504200
O       -1.27765000       0.90461000       9.81479000       0.02968000       0.04418900      -0.06964400
O        1.47590000       3.90425000       5.16717000      -0.24222900      -0.04144200      -0.01063600
O        2.82730000       1.34606000       0.11530000       0.00897700      -0.01643900      -0.05351200
O        2.39263000       1.27373000       2.76218000       0.00915800       0.02081300      -0.01486100
O        1.92447000       3.96550000       2.50978000       0.00356200      -0.03606100       0.04563000
O        0.61932000       3.90032000      10.47191000      -0.02945600      -0.02759400       0.04111500
O       -0.40625000       0.90530000       4.49924000       0.13116500       0.05424400       0.03486000
O        1.04817000       3.97328000       7.82524000       0.02019700      -0.05203200       0.02231800
O        3.77347000       4.31380000       6.06688000      -0.18148000      -0.05339700       0.02241200
O        0.03291000       6.96417000       1.85079000       0.03323600      -0.05704400      -0.04479600
O        4.28090000       8.78078000       3.43212000      -0.07381300       0.13162300       0.05625600
O        1.95893000       1.34800000       5.41666000      -0.05028200      -0.03461000      -0.00160000
O        4.72184000       9.57785000       0.78115000      -0.05651000      -0.04843800       0.01482800
O        4.28762000       3.52241000       3.42320000      -0.05362200       0.06465700       0.02383500
O        0.03368000       1.71102000       1.84720000       0.10535100      -0.04888400       0.01066600
O        3.40457000       3.52468000       8.74824000      -0.08020800       0.04493000       0.00466900
O       -0.40925000       6.14951000       4.50936000       0.09827000       0.12627300      -0.03938300
O        1.92051000       9.21872000       2.50834000      -0.01245800      -0.01453400       0.04882300
O        2.39144000       6.53030000       2.76410000      -0.05936500       0.03023500      -0.02032000
O        2.83355000       6.59275000       0.11114000      -0.04161000      -0.01404500       0.00429200
O        1.48913000       9.14525000       5.15501000      -0.00922400       0.06573500       0.02580300
O       -0.84483000       1.72242000       7.15992000       0.04264300      -0.09257600      -0.10414300
O        4.72439000       4.34051000       0.77618000      -0.15340500      -0.11122500       0.03817500
O        1.51827000       1.26991000       8.08392000      -0.06217300      -0.03046600      -0.08848700
Zr       0.38364000       0.22351000       6.42514000      -0.51829200      -0.00807300      -0.14747100
Zr       2.18068000       5.02212000       9.47281000       0.18814000      -0.08156300       0.09371000
Zr       7.74773000       8.01199000       6.78229000       0.13821100       0.01681400       0.09283600
Zr       2.63845000       2.86147000       6.81707000       0.11014000      -0.03174100       0.16228600
Zr       5.14141000       7.59400000       8.96695000      -0.05696100       0.06549300       0.16825800
Zr       0.82387000       2.40603000       3.76025000      -0.32593000       0.14708400      -0.03178600
Zr       3.48933000       2.84687000       1.52204000       0.30457000       0.08683700       0.00766000
Zr       3.12705000       5.03278000       4.23724000       0.14407000      -0.10843300      -0.12534700
Zr       7.36605000      10.25785000       9.44805000       0.06156900      -0.05287300      -0.04432400
Zr       6.02693000       7.60524000       3.80505000       0.04024300       0.24143000      -0.34322300
Zr       2.64090000       8.05922000       6.82733000       0.04034900       0.19870800       0.07116000
Zr       8.24624000      10.26287000       4.14823000       0.06291900       0.04752900       0.13905300
Zr       2.18024000      10.26820000       9.46740000       0.38216100      -0.03125500       0.19004000
Zr       0.38537000       5.47391000       6.41344000      -0.20917700      -0.04489200      -0.04062000
Zr       6.45578000       0.22314000       1.08351000      -0.11272600       0.12585700      -0.12151900
Zr       8.16762000       5.02997000       4.20522000       0.25567700       0.01932300      -0.25272500
Zr       8.69623000       2.85548000       1.49405000      -0.09634800       0.11735800       0.11280500
Zr       6.02029000       2.41726000       3.76196000       0.06697200      -0.23414000      -0.29949300
Zr       0.82734000       7.63972000       3.76563000      -0.29607100      -0.13680200      -0.10840300
Zr       3.48459000       8.09083000       1.52387000       0.27215900      -0.07253600       0.14642000
Zr       3.05686000      10.26795000       4.17188000       0.32514800      -0.05615600       0.05184700
Zr       1.25403000       5.46194000       1.11290000      -0.25671300       0.04389800      -0.08071900
Zr       5.58835000       0.22265000       6.38933000       0.02452500       0.00992000       0.00299900
Zr       7.33542000       5.02459000       9.39487000       0.11640000       0.03911400       0.34679500
Zr       7.74358000       2.91824000       6.77489000       0.27719300      -0.31349800       0.04079100
Zr       5.16528000       2.43110000       9.02111000      -0.04633500      -0.02609900       0.16928900
Zr      -0.05577000       7.64753000       9.06892000      -0.32304900      -0.08967100      -0.07007800
Zr      -0.05312000       2.39332000       9.05580000      -0.34705200       0.09746100      -0.05753700
Zr       6.45920000       5.46904000       1.08214000       0.02913900      -0.12859000       0.03578600
Zr       8.67296000       8.09411000       1.48972000       0.06191200      -0.09363400      -0.05036000
Zr       1.26100000       0.22380000       1.10762000      -0.22121200       0.01050100      -0.06405600
