95
Lattice="10.381444 0.0 -0.053824 0.0 10.490337 0.0 -1.746774 0.0 10.614441" Properties=species:S:1:pos:R:3:forces:R:3 energy=-895.73696474 stress="8.23852 -0.68549 -2.14905 -0.68549 3.6996 -0.65383 -2.14905 -0.65383 -0.25946" pbc="T T T"
O        0.61118000       9.14436000      10.48197000       0.04675100      -0.01781700       0.00410300
O        8.63176000       3.54927000       8.71045000       0.06835100       0.16111500      -0.01619700
O        4.34981000       1.70660000       7.12909000       0.05524900      -0.00507800       0.03810200
O        6.78426000       3.78924000       5.08070000       0.02541900      -0.10997500      -0.02059900
O        8.02560000       1.35458000       0.08196000      -0.01177400       0.00974500       0.00806900
O        7.58563000       1.28299000       2.74296000       0.03451300      -0.08990300      -0.09483500
O        7.10777000       3.97006000       2.48020000      -0.00347900       0.02840900      -0.07397500
O        4.78355000       0.91483000       4.47937000       0.01582100      -0.01275900       0.02346400
O        9.06631000       4.33301000       6.06479000      -0.03103400       0.00499800       0.06528500
O        9.91064000       4.33440000       0.74055000      -0.03215300      -0.03946900      -0.00483000
O        5.22021000       1.71259000       1.81006000       0.10784600      -0.12202500      -0.07574900
O        7.28078000       6.65301000       5.27590000       0.07037600       0.14230600      -0.11183100
O        1.94192000       6.59235000       5.41430000       0.02322300       0.05858700      -0.02232400
O        1.51812000       6.52043000       8.07364000      -0.02966900       0.02238100       0.02595400
O        1.04408000       9.21580000       7.82824000      -0.03271100       0.05359600      -0.00872100
O       -1.26994000       6.14670000       9.80027000       0.04049200      -0.05469400       0.07806100
O        3.84827000       9.58395000       6.08381000       0.04440800       0.07563600       0.02585100
O        9.47601000       3.53783000       3.40679000       0.05685100       0.00845600      -0.11977600
O        3.40912000       8.79450000       8.75564000       0.06830200       0.01639600       0.03041900
O        3.91096000       0.90784000       9.77659000       0.07611600      -0.05714300       0.09460600
O        6.71242000       1.25624000       8.03818000       0.03746600      -0.14768600       0.02753300
O        6.82240000       6.62091000       8.13273000       0.05233300      -0.01337600       0.16840100
O        6.23732000       9.21723000       7.78697000      -0.09345800       0.01905100       0.08806600
O        3.89709000       6.15473000       9.79838000       0.04529800       0.07098300       0.03589500
O        9.02803000       9.55894000       6.06169000       0.04983200       0.05005800      -0.02347000
O        8.60309000       8.77870000       8.71668000      -0.05376100       0.14326000       0.04281100
O        4.30777000       7.03818000       7.16749000       0.16977400      -0.00700500      -0.01972200
O        6.65862000       9.16016000       5.15707000      -0.11534400      -0.00556700      -0.04286900
O        6.29807000       3.86723000       7.91869000       0.06206600       0.05416100       0.04288000
O        8.01644000       6.57437000       0.08917000      -0.02599800       0.01866800       0.03691100
O        7.12132000       9.21872000       2.49131000      -0.04728200       0.03713800      -0.01066600
O        4.75062000       6.21811000       4.37289000       0.13546200       0.18587300      -0.13918600
O        9.91725000       9.58052000       0.75560000      -0.18387800      -0.11081400      -0.03802000
O        9.48135000       8.77927000       3.40116000      -0.11071900       0.03869300      -0.03964900
O        5.21444000       6.94710000       1.83274000       0.04123600       0.00885700      -0.00887200
O        5.78948000       3.91153000      10.47188000      -0.04798100      -0.01468700       0.20044900
O        7.14509000       1.31731000       5.40513000       0.05535100      -0.22797700      -0.05872200
O        7.58096000       6.51754000       2.71920000      -0.00243200       0.08234600      -0.30313000
O       -0.83648000       6.96320000       7.15470000       0.02912300      -0.00398800      -0.01185600
O        5.81179000       9.13930000      10.44422000      -0.05294800      -0.02098600       0.04155900
O       -1.27758000       0.90661000       9.81153000      -0.15207900      -0.03539300      -0.10553300
O        1.45773000       3.90391000       5.16689000      -0.13152700       0.01723400      -0.00916300
O        2.82617000       1.34501000       0.11335000       0.03512900       0.05758700      -0.01228200
O        2.39261000       1.27434000       2.75966000       0.01618900       0.03892100       0.03994000
O        1.92526000       3.96261000       2.51217000      -0.00834700       0.04451400       0.00690000
O        0.61990000       3.89982000      10.47257000      -0.06963200      -0.03703800       0.06112900
O       -0.40247000       0.90727000       4.49835000      -0.10601900      -0.03854200       0.03976900
O        1.04915000       3.97269000       7.82654000       0.01725300      -0.05368200       0.02273300
O        3.75279000       4.30962000       6.06477000      -0.06238200       0.05047300      -0.00162100
O        0.03275000       6.96277000       1.84792000      -0.12399800      -0.04392000      -0.08542800
O        4.27969000       8.78839000       3.43829000       0.12487100       0.00108600      -0.03955400
O        1.95728000       1.34795000       5.41625000      -0.08790300       0.00820800       0.04139600
O        4.72012000       9.57372000       0.78444000       0.14892400       0.04935000       0.04885600
O        4.28978000       3.52437000       3.42631000       0.11031700      -0.04961300      -0.04845000
O        0.03726000       1.70704000       1.84561000      -0.17792000       0.16556900       0.02094300
O        3.40191000       3.52640000       8.75131000       0.07456800      -0.05891600       0.04560100
O       -0.41242000       6.15184000       4.50917000       0.07572700       0.06316600      -0.09192200
O        1.91714000       9.21992000       2.50933000       0.06180300      -0.07005400       0.03421400
O        2.38705000       6.53403000       2.76426000      -0.04510300      -0.05725200      -0.05282600
O        2.83229000       6.59173000       0.10940000      -0.05514800      -0.01811900       0.08726700
O        1.48906000       9.14812000       5.15279000      -0.04176000       0.00703500       0.04055700
O       -0.85172000       1.72388000       7.15243000      -0.01000800      -0.09285100      -0.07581200
O        4.71829000       4.33497000       0.77811000       0.08721000       0.05223400       0.05160200
O        1.51479000       1.26766000       8.08163000      -0.10927100      -0.02034800      -0.08782900
Zr       0.36178000       0.22120000       6.42257000      -0.00321400      -0.07353900      -0.12624200
Zr       2.18229000       5.01905000       9.48151000      -0.05705000       0.02609400      -0.12050900
Zr       7.74389000       8.00389000       6.78656000       0.19614500      -0.00400700      -0.04200700
Zr       2.63566000       2.85251000       6.82404000      -0.08007000      -0.14742200       0.13245500
Zr       5.13739000       7.59778000       8.97017000      -0.02197600      -0.00532200       0.02148500
Zr       0.81463000       2.42020000       3.75904000       0.06184300      -0.14137700      -0.02705700
Zr       3.50029000       2.85060000       1.52224000      -0.16744400      -0.09145600      -0.04361900
Zr       3.13820000       5.02831000       4.23519000      -0.11444100       0.00861400      -0.10894900
Zr       7.36226000      10.25288000       9.44366000       0.20967500      -0.03236100       0.01826600
Zr       6.03514000       7.62178000       3.78744000      -0.02784100       0.07425800      -0.06219900
Zr       2.63637000       8.07198000       6.83184000      -0.24784800       0.04228400      -0.03185400
Zr       8.24574000      10.26556000       4.15491000       0.20295700      -0.08584300       0.15018900
Zr       2.19663000      10.26969000       9.47414000      -0.21186600       0.02253900       0.10722300
Zr       0.38461000       5.47118000       6.40933000      -0.03482400      -0.01457300       0.11935800
Zr       6.45201000       0.22730000       1.07634000      -0.12065400       0.00519600      -0.10436400
Zr       8.17377000       5.03968000       4.19282000       0.10751800      -0.24498700       0.08481500
Zr       8.69396000       2.86229000       1.49979000       0.06326200      -0.00810400       0.07314700
Zr       6.02280000       2.39632000       3.74013000       0.01302500       0.12462800       0.20291600
Zr       0.81917000       7.63274000       3.75940000       0.00992400       0.10134700       0.04898100
Zr       3.49545000       8.08368000       1.53398000      -0.20973200       0.03063600      -0.03599100
Zr       3.07013000      10.26592000       4.17475000      -0.23442800       0.09612300      -0.04095500
Zr       1.24436000       5.45953000       1.11145000       0.14578300       0.09559800      -0.06118900
Zr       5.59400000       0.22044000       6.39101000      -0.15291400      -0.00286300       0.01738300
Zr       7.33874000       5.02773000       9.41379000       0.12870000       0.02893600      -0.01922300
Zr       7.75104000       2.89991000       6.77821000       0.13292000       0.06736900      -0.01547300
Zr       5.17028000       2.42866000       9.03022000      -0.16781500       0.07911700      -0.03215500
Zr      -0.07002000       7.64888000       9.06873000       0.12969500      -0.04709800      -0.05276800
Zr      -0.06714000       2.39728000       9.04926000       0.10102100       0.02237600       0.12071600
Zr       6.46256000       5.46646000       1.08493000      -0.15619800      -0.13974700      -0.03051900
Zr       8.66696000       8.08892000       1.48446000       0.26807300       0.03139700       0.04280000
Zr       1.25560000       0.22214000       1.10405000       0.12984700      -0.02722600       0.05143000
