95
Lattice="10.381444 0.0 -0.053824 0.0 10.490337 0.0 -1.746774 0.0 10.614441" Properties=species:S:1:pos:R:3:forces:R:3 energy=-895.78803475 stress="9.0739 -0.52723 -2.10325 -0.52723 3.97775 -0.60551 -2.10325 -0.60551 0.05979" pbc="T T T"
O        0.61282000       9.14418000      10.48348000       0.01530100      -0.00644100       0.04262300
O        8.64364000       3.56205000       8.70892000       0.08374800       0.06457700      -0.05663500
O        4.35143000       1.70666000       7.12959000      -0.03016400       0.06097500       0.06676800
O        6.79480000       3.77452000       5.07929000       0.03102300      -0.01551000       0.01150500
O        8.02647000       1.35633000       0.08092000      -0.01938000       0.05343500      -0.00262000
O        7.58717000       1.27970000       2.73948000       0.03290800      -0.02658600      -0.00789400
O        7.10585000       3.97208000       2.47776000       0.01304400      -0.01886900       0.06792200
O        4.78203000       0.91583000       4.48034000      -0.05907300      -0.00957100      -0.00737100
O        9.06610000       4.33274000       6.07163000      -0.00787000       0.05819400      -0.01909500
O        9.91084000       4.33325000       0.73764000       0.04755800       0.00577100       0.00477700
O        5.22456000       1.70560000       1.80406000      -0.09849200       0.06204700      -0.00577300
O        7.30216000       6.66503000       5.25695000       0.02178600       0.05945000      -0.02690700
O        1.94247000       6.59539000       5.41303000       0.01856100       0.05836700       0.01095200
O        1.51622000       6.52238000       8.07329000      -0.00121700      -0.00518200       0.05038400
O        1.04181000       9.21782000       7.82859000      -0.02463400       0.00359900       0.01885200
O       -1.26574000       6.14318000       9.80142000       0.11052400       0.02473600       0.05516100
O        3.84790000       9.58626000       6.08486000      -0.10479400       0.00183100       0.01455500
O        9.47943000       3.54101000       3.40368000       0.06738300       0.01335400      -0.07059100
O        3.41066000       8.79983000       8.76069000      -0.03094200       0.00315200      -0.02218300
O        3.91337000       0.90481000       9.77919000      -0.04983900      -0.04960100       0.01312800
O        6.71574000       1.24451000       8.03720000      -0.01512100       0.01236500       0.01610400
O        6.84226000       6.63312000       8.14636000      -0.02967100      -0.08299700       0.09520000
O        6.23154000       9.21602000       7.78982000      -0.03339200      -0.02868100       0.03348600
O        3.89718000       6.15921000       9.79966000      -0.10707600      -0.01818000       0.00391200
O        9.03030000       9.55590000       6.06347000       0.02201900       0.00974500      -0.02876000
O        8.60150000       8.78677000       8.72000000       0.15781800      -0.05231200      -0.03199700
O        4.31485000       7.04408000       7.16783000      -0.01102700       0.05035500      -0.08019500
O        6.64696000       9.16031000       5.15888000       0.00522700      -0.01204800      -0.00219400
O        6.30153000       3.86222000       7.93407000       0.13693400       0.05112500      -0.05223500
O        8.01395000       6.57220000       0.09076000       0.00213200       0.00200200      -0.02945400
O        7.11999000       9.22062000       2.49289000      -0.01823200       0.02600200      -0.01577900
O        4.75215000       6.23380000       4.35473000      -0.05165000      -0.05658300      -0.05644300
O        9.90899000       9.57370000       0.75573000       0.15150600       0.10967900      -0.02516300
O        9.47835000       8.78173000       3.39955000       0.04446200      -0.04729400      -0.01255500
O        5.21386000       6.94704000       1.83453000      -0.10790700       0.05751200      -0.06925300
O        5.78440000       3.91378000      10.48437000      -0.01795500      -0.03845800       0.08219600
O        7.14775000       1.30173000       5.40554000       0.05681200      -0.08349000      -0.03247900
O        7.57976000       6.52079000       2.70150000       0.03877900      -0.04970800      -0.10240300
O       -0.83485000       6.96202000       7.15225000       0.06560800       0.02436800       0.05193400
O        5.80990000       9.13603000      10.44475000      -0.03450100      -0.01853900       0.00283200
O       -1.28465000       0.90583000       9.80518000       0.06203700       0.03016400       0.02734000
O        1.44367000       3.90456000       5.16634000      -0.03219400       0.02846300      -0.01290000
O        2.82732000       1.34724000       0.11193000      -0.02238900       0.00004200       0.01533300
O        2.39336000       1.27642000       2.76042000      -0.01459700       0.00366300      -0.02080500
O        1.92521000       3.96343000       2.51354000       0.03797100       0.02363600       0.00799800
O        0.61690000       3.89787000      10.47571000      -0.00621500      -0.02079400       0.03985600
O       -0.40577000       0.90633000       4.49981000      -0.01950300       0.01199000       0.00933500
O        1.05038000       3.96993000       7.82817000       0.01359400      -0.01628100       0.06600500
O        3.74086000       4.31015000       6.06378000      -0.12447200       0.02610900      -0.03471100
O        0.02689000       6.96011000       1.84267000       0.03135900      -0.06992400      -0.01974500
O        4.28499000       8.79176000       3.43913000      -0.04781800       0.09069100      -0.08058700
O        1.95246000       1.34831000       5.41801000      -0.05286700      -0.00343700      -0.01741400
O        4.72632000       9.57422000       0.78816000      -0.07743200      -0.06694700       0.01384400
O        4.29587000       3.52290000       3.42541000       0.02530600      -0.00542500      -0.06320800
O        0.03052000       1.71303000       1.84589000       0.06201200      -0.03121900      -0.01115600
O        3.40422000       3.52440000       8.75477000      -0.03799700      -0.00213000       0.05828300
O       -0.41027000       6.15581000       4.50480000       0.06502000      -0.00989300      -0.03453100
O        1.91856000       9.21717000       2.51136000       0.02737600       0.00682300       0.00151000
O        2.38303000       6.53298000       2.76186000      -0.03629800      -0.02966700      -0.05274000
O        2.82917000       6.59043000       0.11272000      -0.00044400       0.00476400       0.02230500
O        1.48707000       9.14970000       5.15371000      -0.04408200      -0.00217400       0.03696900
O       -0.85520000       1.72018000       7.14563000       0.00984200      -0.03068900       0.01615600
O        4.71970000       4.33499000       0.78136000      -0.07709500      -0.01462500      -0.00656200
O        1.50817000       1.26573000       8.07654000      -0.07473200      -0.01422200       0.00256500
Zr       0.35210000       0.21677000       6.41555000       0.08845000       0.01652200      -0.00018300
Zr       2.18033000       5.01893000       9.47967000       0.04453900       0.01576300      -0.05669700
Zr       7.75137000       8.00017000       6.78646000      -0.03216800       0.09389900      -0.06720500
Zr       2.63071000       2.84172000       6.83326000      -0.01077400      -0.05340800      -0.00482100
Zr       5.13461000       7.59918000       8.97258000       0.15582500       0.08217400       0.07115100
Zr       0.81348000       2.41979000       3.75725000       0.02760100      -0.09707000       0.02130100
Zr       3.49725000       2.84796000       1.52030000      -0.02368800      -0.02391700       0.02922800
Zr       3.13772000       5.02677000       4.22921000      -0.03630900       0.02562100      -0.00325500
Zr       7.37040000      10.24920000       9.44260000      -0.14273400       0.02435100       0.03742700
Zr       6.03742000       7.63246000       3.77686000       0.20992500       0.12415000      -0.06254700
Zr       2.62282000       8.07952000       6.83232000       0.01953200      -0.02953000      -0.03046400
Zr       8.25499000      10.26272000       4.16483000      -0.14975300      -0.05444600      -0.06682700
Zr       2.19389000      10.27139000       9.48209000      -0.11538700       0.01746300      -0.02882100
Zr       0.38265000       5.46931000       6.41311000       0.01155600      -0.01565100       0.00252300
Zr       6.44473000       0.22936000       1.06835000       0.25487600      -0.09146900       0.05383300
Zr       8.18147000       5.03249000       4.19137000      -0.01199400      -0.06461700      -0.01313000
Zr       8.69592000       2.86488000       1.50571000      -0.12186800      -0.09818300      -0.07517500
Zr       6.02450000       2.39300000       3.74008000       0.09838400      -0.00822800       0.13403900
Zr       0.81607000       7.63442000       3.75897000      -0.03205300       0.04761800       0.04610900
Zr       3.49040000       8.08200000       1.53671000      -0.03580200       0.02771300      -0.02147900
Zr       3.06498000      10.26952000       4.17409000      -0.06258100       0.04542100       0.03765700
Zr       1.24695000       5.46294000       1.10796000       0.04106400       0.02862400       0.01273900
Zr       5.58932000       0.21934000       6.39256000       0.03218400      -0.08075700       0.05130200
Zr       7.34619000       5.03045000       9.42114000      -0.05088800      -0.00445400       0.00668300
Zr       7.76049000       2.89506000       6.77894000      -0.03495500      -0.00139100       0.05843200
Zr       5.16462000       2.43128000       9.03270000       0.07996800       0.00119400       0.02875300
Zr      -0.07018000       7.64727000       9.06618000       0.02988300      -0.01453400      -0.02976300
Zr      -0.06854000       2.40005000       9.05204000       0.03426100      -0.04813800       0.02394400
Zr       6.45674000       5.45881000       1.08472000       0.06046300       0.00307200      -0.01941600
Zr       8.67685000       8.08813000       1.48416000      -0.12646700       0.01415500       0.01313400
Zr       1.25931000       0.22015000       1.10489000      -0.13766500       0.01654100       0.00407700
