95
Lattice="10.381444 0.0 -0.053824 0.0 10.490337 0.0 -1.746774 0.0 10.614441" Properties=species:S:1:pos:R:3:forces:R:3 energy=-895.83386486 stress="9.56876 -0.61615 -1.92511 -0.61615 4.47963 -0.72439 -1.92511 -0.72439 0.76326" pbc="T T T"
O        0.61070000       9.14124000      10.49179000       0.00405500       0.01181700       0.00686600
O        8.67589000       3.58697000       8.69256000       0.01161500       0.00949000      -0.00471300
O        4.35205000       1.71368000       7.14110000      -0.01060100       0.01513300      -0.00610900
O        6.80802000       3.76090000       5.08825000      -0.01028200       0.04355100       0.00039400
O        8.02586000       1.35731000       0.07595000      -0.01194200      -0.00106800       0.00850800
O        7.59217000       1.27313000       2.73430000      -0.00971400      -0.01283000       0.01486000
O        7.10701000       3.96582000       2.49270000      -0.01234200       0.00697400      -0.02926000
O        4.77213000       0.92055000       4.49027000      -0.02210300       0.01098900       0.00319500
O        9.06388000       4.34493000       6.06637000       0.01802600      -0.02491900       0.01122700
O        9.91649000       4.32528000       0.73451000       0.02075000      -0.00757100      -0.01433700
O        5.22353000       1.70218000       1.80596000      -0.00019800      -0.01890900      -0.00038800
O        7.32307000       6.68504000       5.23115000      -0.00517800      -0.01025000       0.02754700
O        1.94604000       6.60404000       5.41221000       0.01807800       0.01308500       0.00193200
O        1.52065000       6.51913000       8.07722000       0.00878500       0.00685800      -0.00742000
O        1.03742000       9.21776000       7.83529000       0.01119900      -0.00986500      -0.00938000
O       -1.25127000       6.14225000       9.80974000       0.00604600       0.02147300      -0.00205400
O        3.82642000       9.59948000       6.09024000      -0.02571300      -0.01056700       0.01861800
O        9.49227000       3.54923000       3.38565000      -0.00280100       0.01362400       0.01120800
O        3.40652000       8.80003000       8.76357000       0.01132700      -0.02521900       0.00819400
O        3.91082000       0.89621000       9.78175000       0.01765300       0.00967200       0.00588200
O        6.71259000       1.24109000       8.03903000       0.00716300      -0.00757800       0.00284500
O        6.84986000       6.63251000       8.15956000       0.01120500      -0.01010800      -0.02854900
O        6.22900000       9.20913000       7.79800000       0.00414000       0.02042400       0.00220400
O        3.88794000       6.16655000       9.80032000      -0.00903200      -0.02029000      -0.00542200
O        9.03063000       9.54955000       6.05443000       0.00263200      -0.00554200       0.00045800
O        8.61826000       8.79626000       8.71185000       0.00715900      -0.00417800      -0.00225400
O        4.32816000       7.06647000       7.15857000       0.00959400       0.01772600      -0.02429600
O        6.63716000       9.16027000       5.16217000      -0.01311100       0.00216300       0.00093600
O        6.32494000       3.86363000       7.94884000      -0.00822700      -0.02998000      -0.00749500
O        8.00862000       6.57099000       0.08211000       0.01631100       0.00761500      -0.00035900
O        7.11701000       9.21604000       2.49452000      -0.01001100       0.00584100      -0.02584600
O        4.75237000       6.23731000       4.31104000       0.00321800      -0.05060600      -0.04841500
O        9.91100000       9.57803000       0.74997000       0.03218400       0.00233700       0.00184400
O        9.47367000       8.77408000       3.39235000      -0.00873900      -0.00464900       0.00620500
O        5.20529000       6.95499000       1.81940000       0.00780300       0.02510900      -0.00848600
O        5.77941000       3.90992000      10.49883000       0.01140000      -0.00050800       0.00830500
O        7.15003000       1.28283000       5.40760000      -0.00048400       0.01043300      -0.00334100
O        7.58470000       6.51136000       2.67684000      -0.01702000       0.00667000       0.00383700
O       -0.82535000       6.96619000       7.15436000       0.00803700      -0.01599600      -0.00917100
O        5.80975000       9.13576000      10.45244000      -0.02184600      -0.01524000      -0.03043700
O       -1.28757000       0.91184000       9.80700000      -0.00554500       0.02225200       0.01264400
O        1.42538000       3.90703000       5.16226000      -0.00352000      -0.00099300      -0.00077000
O        2.82303000       1.34252000       0.11423000       0.01555800       0.00514500       0.01839700
O        2.38926000       1.27758000       2.76169000      -0.00071100       0.00662300       0.00887700
O        1.93827000       3.96561000       2.52341000       0.00426900       0.00614700      -0.00366500
O        0.61671000       3.89217000      10.48660000       0.00617700      -0.00790000       0.00080800
O       -0.41637000       0.90694000       4.49879000       0.00631400       0.00760200       0.01572600
O        1.05581000       3.96687000       7.83567000      -0.00677900      -0.00682200       0.00495500
O        3.69264000       4.32130000       6.05684000      -0.03095700       0.03930200       0.01918600
O        0.02367000       6.95280000       1.83642000      -0.01216300       0.00621000      -0.00731200
O        4.29063000       8.81388000       3.42607000      -0.02884700       0.01911300      -0.00138600
O        1.94195000       1.35160000       5.41824000      -0.01372200      -0.00959800       0.01458600
O        4.72548000       9.56867000       0.78777000      -0.00517000       0.00344200      -0.01274000
O        4.30930000       3.52538000       3.42269000      -0.01298300       0.00609200       0.01108600
O        0.03071000       1.71342000       1.84321000       0.00149300      -0.00694400       0.00909200
O        3.40167000       3.51592000       8.76941000      -0.00428700       0.00235300       0.00636200
O       -0.39532000       6.14528000       4.49679000       0.00112600       0.00014300      -0.01528700
O        1.91107000       9.22190000       2.51806000       0.00662100      -0.00538000       0.00054600
O        2.37013000       6.53372000       2.75545000       0.01984700       0.01444700       0.00224900
O        2.83496000       6.59068000       0.11586000      -0.01107100      -0.01469100       0.00831100
O        1.47173000       9.15372000       5.15909000       0.00984400      -0.00845600       0.00666700
O       -0.85892000       1.71325000       7.15133000       0.00686200      -0.01689200      -0.00768100
O        4.71141000       4.33858000       0.78407000       0.00694800      -0.01598000       0.02338200
O        1.49681000       1.26037000       8.07673000       0.01900200       0.00575400       0.00137100
Zr       0.35239000       0.21310000       6.41617000      -0.01972700      -0.00691900      -0.00457500
Zr       2.18019000       5.01732000       9.48224000       0.01797800       0.00421400       0.00137900
Zr       7.75595000       8.00185000       6.78303000      -0.00615500      -0.01134000      -0.01233000
Zr       2.62661000       2.83272000       6.84180000       0.00897300      -0.01474400       0.00989100
Zr       5.14446000       7.60462000       8.97802000       0.00243200      -0.01884300      -0.00665800
Zr       0.81037000       2.41085000       3.75807000      -0.01432900       0.00785100       0.00830000
Zr       3.49825000       2.84269000       1.52649000       0.02719900      -0.00999700       0.00647300
Zr       3.13324000       5.02993000       4.21464000      -0.01257100       0.00266700      -0.01814900
Zr       7.36898000      10.24778000       9.44314000       0.01587700       0.00795200      -0.01671500
Zr       6.05317000       7.64332000       3.75950000       0.01099000       0.00758000      -0.00700900
Zr       2.62162000       8.07597000       6.83590000       0.01755700       0.00350900      -0.00699300
Zr       8.24520000      10.25748000       4.16416000      -0.00784200      -0.00970300      -0.00279700
Zr       2.18474000      10.27059000       9.48445000      -0.02367100      -0.01022200       0.01353300
Zr       0.38880000       5.46663000       6.41300000      -0.00502300      -0.00668700      -0.00619500
Zr       6.45304000       0.22307000       1.06675000       0.01002200       0.01140800       0.03864900
Zr       8.18778000       5.02601000       4.18878000      -0.00519200       0.01175900      -0.00419100
Zr       8.68766000       2.86206000       1.50277000      -0.02045500      -0.00596800       0.00578000
Zr       6.03067000       2.38820000       3.75175000       0.00602500      -0.02696100      -0.00276600
Zr       0.81095000       7.63867000       3.76133000      -0.02979800      -0.00220700      -0.00532900
Zr       3.47896000       8.09107000       1.53571000      -0.00136100      -0.01771300      -0.00030400
Zr       3.05471000      10.27134000       4.17645000       0.02460400       0.01948300       0.01895900
Zr       1.25522000       5.46039000       1.11247000       0.00008600       0.02321600      -0.02400500
Zr       5.58264000       0.21118000       6.39921000       0.01097300       0.02552800      -0.00798900
Zr       7.35579000       5.03015000       9.42750000      -0.01850500       0.00696900      -0.01037900
Zr       7.76856000       2.89198000       6.78898000       0.00310200       0.01068000       0.01676800
Zr       5.16829000       2.43053000       9.03682000       0.00400000       0.01995400       0.00655100
Zr      -0.06186000       7.64496000       9.06634000      -0.01779700       0.00119300      -0.00183900
Zr      -0.06232000       2.39829000       9.05808000      -0.01106900      -0.00542800       0.00395700
Zr       6.45248000       5.45580000       1.08147000       0.03066300      -0.01123700       0.00802000
Zr       8.67766000       8.08104000       1.48095000      -0.00635400      -0.01840100       0.01263800
Zr       1.24705000       0.22399000       1.10581000      -0.00797600      -0.01367500      -0.00541000
