95
Lattice="10.381444 0.0 -0.053824 0.0 10.490337 0.0 -1.746774 0.0 10.614441" Properties=species:S:1:pos:R:3:forces:R:3 energy=-895.83406521 stress="9.53189 -0.5941 -1.91739 -0.5941 4.47041 -0.72426 -1.91739 -0.72426 0.78225" pbc="T T T"
O        0.61019000       9.14103000      10.49217000       0.00939100       0.01412100       0.00540600
O        8.67725000       3.58816000       8.69174000       0.01337300       0.00553500      -0.00237900
O        4.35192000       1.71404000       7.14123000      -0.00940100       0.01495300      -0.00367900
O        6.80806000       3.76054000       5.08884000      -0.00746500       0.05661700      -0.00117800
O        8.02579000       1.35694000       0.07601000      -0.01279800       0.00270900       0.00462500
O        7.59195000       1.27306000       2.73418000      -0.00639900      -0.01694600       0.01798900
O        7.10688000       3.96553000       2.49282000      -0.01175100       0.00963900      -0.02883700
O        4.77172000       0.92121000       4.49107000      -0.02666700       0.00662600       0.00100300
O        9.06386000       4.34508000       6.06598000       0.02527700      -0.02276200       0.01280400
O        9.91688000       4.32466000       0.73416000       0.02702500      -0.00273100      -0.01356100
O        5.22370000       1.70203000       1.80692000      -0.00402200      -0.02231500      -0.01163800
O        7.32347000       6.68526000       5.23035000      -0.00568200      -0.00812400       0.03372800
O        1.94630000       6.60415000       5.41208000       0.01983900       0.01441800       0.00056200
O        1.52109000       6.51894000       8.07715000       0.00937300       0.00680200      -0.00744800
O        1.03737000       9.21746000       7.83585000       0.01354300      -0.00855200      -0.01523800
O       -1.25117000       6.14245000       9.80984000       0.00987700       0.02010200       0.00254300
O        3.82530000       9.60051000       6.09057000      -0.02440100      -0.01720700       0.02242800
O        9.49244000       3.54995000       3.38494000       0.00162600       0.00933300       0.01465500
O        3.40628000       8.79966000       8.76397000       0.01471700      -0.02866200       0.00605600
O        3.91073000       0.89602000       9.78184000       0.02214200       0.01279600       0.00365100
O        6.71255000       1.24117000       8.03892000       0.00529900      -0.00828700       0.00683800
O        6.85003000       6.63205000       8.15863000       0.00935000      -0.00755400      -0.02065400
O        6.22948000       9.20930000       7.79804000       0.00119900       0.01818100       0.00532000
O        3.88783000       6.16665000       9.80043000      -0.01124100      -0.02190600      -0.00831900
O        9.03094000       9.54944000       6.05388000      -0.00378300      -0.01042100       0.00389800
O        8.61898000       8.79673000       8.71116000       0.00369100      -0.00486100       0.00154500
O        4.32957000       7.06736000       7.15805000      -0.00002900       0.02225600      -0.02492000
O        6.63654000       9.16015000       5.16223000      -0.01009000       0.00431100       0.00312600
O        6.32544000       3.86355000       7.94982000      -0.00829800      -0.03400000      -0.01343600
O        8.00836000       6.57060000       0.08156000       0.02016900       0.01455000       0.00166800
O        7.11686000       9.21547000       2.49454000      -0.01067100       0.00670000      -0.03108600
O        4.75255000       6.23657000       4.30846000      -0.00139100      -0.05675200      -0.04635900
O        9.91065000       9.57771000       0.74971000       0.03917000       0.00521200       0.00191300
O        9.47292000       8.77386000       3.39217000      -0.00028200      -0.01108200       0.00522300
O        5.20534000       6.95558000       1.81858000       0.00835500       0.02291800      -0.00914500
O        5.77964000       3.91015000      10.49878000       0.00942300      -0.00465400       0.01182700
O        7.14948000       1.28318000       5.40797000       0.00350000       0.00359900      -0.00408700
O        7.58462000       6.51072000       2.67668000      -0.01734000       0.01072500      -0.00142300
O       -0.82506000       6.96623000       7.15430000       0.01079800      -0.01954200      -0.01149300
O        5.81013000       9.13589000      10.45259000      -0.02854400      -0.01953100      -0.03344100
O       -1.28810000       0.91234000       9.80728000       0.00037300       0.02586900       0.01247400
O        1.42453000       3.90692000       5.16202000       0.00182000       0.00303900      -0.00033100
O        2.82312000       1.34215000       0.11478000       0.01488700       0.00900200       0.01453900
O        2.38928000       1.27755000       2.76188000      -0.00480400       0.01106400       0.01087200
O        1.93922000       3.96551000       2.52377000      -0.00091300       0.01218000      -0.00115500
O        0.61687000       3.89188000      10.48734000       0.00568100      -0.00557700      -0.00304500
O       -0.41697000       0.90686000       4.49893000       0.01450400       0.01502500       0.01436700
O        1.05609000       3.96684000       7.83556000      -0.00979300      -0.00838600       0.01088100
O        3.69055000       4.32276000       6.05695000      -0.03821900       0.03410400       0.01335800
O        0.02390000       6.95249000       1.83611000      -0.01656400       0.00777700      -0.00607200
O        4.29126000       8.81467000       3.42534000      -0.03990100       0.02183500       0.00347400
O        1.94161000       1.35194000       5.41877000      -0.01566700      -0.01248300       0.00938700
O        4.72557000       9.56887000       0.78718000      -0.01063100      -0.00362900      -0.00912200
O        4.31044000       3.52517000       3.42283000      -0.03535800       0.02039200       0.01457200
O        0.03018000       1.71362000       1.84307000       0.00998800      -0.00951000       0.01301800
O        3.40151000       3.51546000       8.76993000      -0.00599000       0.00550000       0.00804800
O       -0.39443000       6.14444000       4.49632000      -0.00310000       0.00204400      -0.01400700
O        1.91012000       9.22215000       2.51845000       0.01429000      -0.00795100      -0.00085900
O        2.36967000       6.53446000       2.75536000       0.02430100       0.00665700       0.00229000
O        2.83548000       6.59076000       0.11596000      -0.01431500      -0.02172900       0.00912000
O        1.47105000       9.15402000       5.15909000       0.01223800      -0.01386800       0.00926500
O       -0.85905000       1.71280000       7.15189000       0.00902400      -0.01547300      -0.00894500
O        4.71149000       4.33884000       0.78458000       0.00306000      -0.01858400       0.02126800
O        1.49703000       1.26003000       8.07707000       0.01851400       0.00998200      -0.00025800
Zr       0.35198000       0.21266000       6.41615000      -0.01966000      -0.00575400      -0.00258600
Zr       2.17991000       5.01730000       9.48271000       0.02961500       0.00102400      -0.00097600
Zr       7.75590000       8.00158000       6.78304000      -0.00452600      -0.01146800      -0.01367000
Zr       2.62621000       2.83200000       6.84245000       0.02071100      -0.00364500       0.00478000
Zr       5.14425000       7.60486000       8.97828000       0.00649700      -0.02650600      -0.01489000
Zr       0.81036000       2.41099000       3.75835000      -0.02736900      -0.00075100       0.00570100
Zr       3.49831000       2.84257000       1.52704000       0.04339900      -0.01935100       0.00350000
Zr       3.13261000       5.03052000       4.21309000       0.00320300      -0.00694100       0.00023100
Zr       7.36885000      10.24786000       9.44317000       0.02483100       0.00644000      -0.02109200
Zr       6.05304000       7.64342000       3.75916000       0.01518600       0.00846500      -0.00880800
Zr       2.62154000       8.07564000       6.83628000       0.02808400       0.00735200      -0.00880200
Zr       8.24508000      10.25679000       4.16421000      -0.01464100       0.00244800      -0.00779300
Zr       2.18543000      10.27055000       9.48427000      -0.03732300      -0.01585400       0.02063800
Zr       0.38961000       5.46678000       6.41290000      -0.01811800      -0.01118600      -0.00713900
Zr       6.45299000       0.22240000       1.06610000       0.01011100       0.02437600       0.05960600
Zr       8.18758000       5.02608000       4.18885000      -0.00332400       0.01188000      -0.00448700
Zr       8.68740000       2.86226000       1.50267000      -0.02393800      -0.01334000       0.01039400
Zr       6.03063000       2.38876000       3.75236000       0.01286300      -0.04632300      -0.01091200
Zr       0.81070000       7.63840000       3.76145000      -0.03898700       0.01001600      -0.00722700
Zr       3.47862000       8.09105000       1.53581000       0.00075400      -0.00426500      -0.00209600
Zr       3.05429000      10.27142000       4.17688000       0.03261600       0.01805200       0.01426700
Zr       1.25570000       5.46008000       1.11312000      -0.01254300       0.02852500      -0.03954700
Zr       5.58247000       0.21119000       6.39941000       0.01237000       0.03017500      -0.01202200
Zr       7.35617000       5.03006000       9.42753000      -0.01904400       0.00851200      -0.01358700
Zr       7.76893000       2.89226000       6.78880000       0.00158300       0.00657900       0.02471900
Zr       5.16840000       2.43010000       9.03721000       0.00378300       0.02765500       0.00209500
Zr      -0.06141000       7.64460000       9.06640000      -0.02548900       0.01058600      -0.00189300
Zr      -0.06161000       2.39821000       9.05829000      -0.02318800      -0.00740900       0.00273600
Zr       6.45266000       5.45563000       1.08134000       0.02863400      -0.01150800       0.01067500
Zr       8.67754000       8.08085000       1.48043000      -0.00254900      -0.02016900       0.02011800
Zr       1.24705000       0.22439000       1.10579000      -0.01384900      -0.02110600      -0.00355500
