95
Lattice="10.381444 0.0 -0.053824 0.0 10.490337 0.0 -1.746774 0.0 10.614441" Properties=species:S:1:pos:R:3:forces:R:3 energy=-895.83921613 stress="9.58157 -0.6387 -1.88364 -0.6387 4.4102 -0.78756 -1.88364 -0.78756 0.81957" pbc="T T T"
O        0.60918000       9.14169000      10.49426000      -0.00029000      -0.00595000      -0.01115500
O        8.68500000       3.59524000       8.68733000      -0.00869300      -0.00209900       0.00076700
O        4.35153000       1.71763000       7.14150000       0.01082200       0.01550800       0.00153500
O        6.80697000       3.76649000       5.09045000      -0.00326300      -0.00939300      -0.00283500
O        8.02400000       1.35626000       0.07778000       0.00865000       0.00986400       0.01440300
O        7.59051000       1.27014000       2.73677000       0.01162700       0.00350400       0.01005600
O        7.10479000       3.96468000       2.49011000       0.01086300      -0.01533100       0.01614100
O        4.76712000       0.92634000       4.49549000      -0.01357400      -0.00371400       0.00132700
O        9.06754000       4.34223000       6.06549000       0.01849300      -0.00569200      -0.00466200
O        9.92155000       4.32043000       0.73018000       0.00339300      -0.00537000      -0.01147100
O        5.22463000       1.69751000       1.81035000      -0.02139800       0.00325600       0.00777000
O        7.32405000       6.68558000       5.23081000      -0.01433600       0.00224600       0.00066800
O        1.94990000       6.60642000       5.41098000      -0.01516100      -0.00161600      -0.01429300
O        1.52428000       6.51854000       8.07648000      -0.00758300      -0.00429500       0.00745500
O        1.03917000       9.21534000       7.83662000       0.00217000       0.01225100      -0.00347600
O       -1.25064000       6.14580000       9.81071000      -0.01092600       0.00515200      -0.00778500
O        3.81927000       9.60474000       6.09575000       0.02714500       0.01355600       0.00183500
O        9.49249000       3.55461000       3.38343000       0.00109400      -0.02061200       0.00653900
O        3.40747000       8.79375000       8.76741000      -0.01555900       0.00405300       0.00672500
O        3.91308000       0.89656000       9.78298000      -0.02617000      -0.01783500      -0.00361400
O        6.71296000       1.24078000       8.03928000       0.00134800       0.00264800       0.00827200
O        6.85193000       6.62846000       8.15233000      -0.00168400      -0.00380900       0.02236600
O        6.23181000       9.21245000       7.79831000      -0.00210800      -0.01874700      -0.00887800
O        3.88738000       6.16398000       9.79983000       0.02669300      -0.01103100      -0.01377400
O        9.03012000       9.54644000       6.05115000      -0.00325600      -0.00837500       0.00474100
O        8.62250000       8.79880000       8.70818000       0.00291300      -0.00488200       0.00521600
O        4.33731000       7.07479000       7.15138000      -0.00902100       0.00803500      -0.03035800
O        6.63232000       9.16084000       5.16221000       0.00160900       0.00865500      -0.01193400
O        6.32662000       3.85850000       7.95246000      -0.00520100       0.00957400      -0.01409900
O        8.01035000       6.57045000       0.07922000       0.01503000      -0.00898800      -0.00153300
O        7.11458000       9.21344000       2.49097000       0.00042600       0.00591500       0.00010300
O        4.75619000       6.22603000       4.28738000       0.02069100      -0.03322300      -0.03287200
O        9.91329000       9.57580000       0.74858000       0.00597100      -0.00014000      -0.00575500
O        9.46800000       8.77136000       3.39193000       0.01341500      -0.00767100       0.00530000
O        5.20806000       6.96153000       1.81311000      -0.00615500       0.01740000      -0.00879800
O        5.78201000       3.91063000      10.50073000       0.00241100       0.00062900      -0.00536900
O        7.14766000       1.28507000       5.40827000       0.00927200       0.00711800      -0.00375100
O        7.58201000       6.50986000       2.67526000       0.00723600       0.01272800       0.00413300
O       -0.82284000       6.96392000       7.15224000      -0.00313000      -0.00122700       0.00051000
O        5.80854000       9.13351000      10.44872000       0.01858200      -0.00033100      -0.01089000
O       -1.29075000       0.91881000       9.81050000       0.00958800       0.00497100       0.01749700
O        1.42129000       3.90702000       5.16099000       0.01460100      -0.00345400      -0.00061500
O        2.82571000       1.34098000       0.11868000      -0.00324800      -0.01445700      -0.00642100
O        2.38822000       1.27927000       2.76515000      -0.00890400      -0.00001800       0.01078400
O        1.94301000       3.96776000       2.52509000      -0.01713100       0.01404500      -0.00866100
O        0.61888000       3.88969000      10.48977000       0.01314100       0.00183000      -0.01055500
O       -0.41943000       0.90814000       4.50119000       0.00332500       0.00196800       0.00012000
O        1.05602000       3.96549000       7.83675000      -0.00131000       0.00059000       0.00632000
O        3.67331000       4.33516000       6.06009000      -0.03704000       0.01920400       0.02505900
O        0.02161000       6.95254000       1.83388000       0.01435900      -0.00846800       0.00891400
O        4.29002000       8.82038000       3.42289000      -0.01357500      -0.01095300       0.02100300
O        1.93752000       1.35198000       5.42263000      -0.00511800      -0.00868700      -0.00678900
O        4.72476000       9.56894000       0.78373000      -0.01059900      -0.01502600       0.01617300
O        4.31162000       3.52580000       3.42620000      -0.02520500      -0.02263000       0.00854300
O        0.02823000       1.71339000       1.84499000       0.01762500      -0.02113400       0.02275800
O        3.40072000       3.51380000       8.77398000       0.00092600       0.00419300       0.00216600
O       -0.39151000       6.14023000       4.49211000       0.00434300       0.01751000       0.01046600
O        1.90782000       9.22232000       2.51970000       0.00639200       0.00815000      -0.00130200
O        2.37052000       6.53871000       2.75483000      -0.01125800      -0.00238700      -0.00621100
O        2.83581000       6.58809000       0.11752000      -0.00508300       0.00796400      -0.01203100
O        1.46927000       9.15302000       5.16002000       0.00611100       0.00016100      -0.00189000
O       -0.85934000       1.70892000       7.15375000       0.00204400      -0.00497700       0.00865800
O        4.71388000       4.33812000       0.79000000      -0.00428700      -0.01318600      -0.00711900
O        1.50034000       1.25990000       8.07914000      -0.01292600       0.00269800       0.00821600
Zr       0.34950000       0.20927000       6.41627000       0.00164600       0.01650600       0.01670500
Zr       2.18112000       5.01680000       9.48440000      -0.00064400      -0.00395600      -0.00186500
Zr       7.75535000       7.99866000       6.78172000      -0.01406200       0.01586600      -0.00497400
Zr       2.62609000       2.82860000       6.84613000      -0.00203900       0.01431400       0.00002600
Zr       5.14489000       7.60260000       8.97677000       0.02253800       0.00456500      -0.00259100
Zr       0.80728000       2.41079000       3.75963000      -0.01869500      -0.00066800      -0.00393800
Zr       3.50278000       2.83964000       1.53014000      -0.00492600       0.02157400       0.00059400
Zr       3.12876000       5.03218000       4.20579000       0.00419000      -0.00176400       0.00644100
Zr       7.37140000      10.24759000       9.44065000      -0.02045200      -0.01293300       0.01143500
Zr       6.05186000       7.64388000       3.75687000       0.00331600       0.02011500       0.00175200
Zr       2.62302000       8.07481000       6.83618000       0.00897400      -0.00637700      -0.00045800
Zr       8.24393000      10.25447000       4.16439000      -0.02315300       0.00919500       0.00377500
Zr       2.18388000      10.26843000       9.48630000       0.04232400       0.00679500      -0.00006700
Zr       0.39231000       5.46566000       6.41214000       0.00396300      -0.00857000       0.00267100
Zr       6.45329000       0.22217000       1.06911000       0.01844000      -0.01326500      -0.02245900
Zr       8.18645000       5.02787000       4.18954000      -0.01276900       0.00064700      -0.01045500
Zr       8.68570000       2.86143000       1.50321000       0.01353400       0.01116800      -0.00863900
Zr       6.03122000       2.38644000       3.75493000       0.01762300       0.02776900       0.01393600
Zr       0.80669000       7.64001000       3.76170000       0.00570800      -0.00656500      -0.00903000
Zr       3.47616000       8.09183000       1.53651000       0.02048400       0.00425700       0.00133000
Zr       3.05372000      10.27360000       4.18001000       0.00595400      -0.00557600      -0.00030400
Zr       1.25693000       5.46118000       1.11032000      -0.02275100      -0.00375300      -0.00127100
Zr       5.58206000       0.21481000       6.40026000       0.01072300      -0.01293800       0.01201900
Zr       7.35697000       5.03069000       9.42504000       0.00095000      -0.00815400       0.00631200
Zr       7.77128000       2.89472000       6.79198000      -0.01169900      -0.01497500      -0.01537300
Zr       5.16867000       2.43131000       9.03910000       0.00636700      -0.01100300       0.01527900
Zr      -0.06171000       7.64492000       9.06527000      -0.00126800      -0.00090000      -0.01709600
Zr      -0.06032000       2.39786000       9.05998000      -0.00347700       0.00542300      -0.00228100
Zr       6.45525000       5.45389000       1.08173000      -0.00344700       0.01148200      -0.00023300
Zr       8.67753000       8.07831000       1.47900000      -0.02471900       0.01680600      -0.01933400
Zr       1.24622000       0.22326000       1.10720000      -0.01174900       0.01523800       0.00444800
