95
Lattice="10.381444 0.0 -0.053824 0.0 10.490337 0.0 -1.746774 0.0 10.614441" Properties=species:S:1:pos:R:3:forces:R:3 energy=-895.84129754 stress="9.58746 -0.60739 -1.87339 -0.60739 4.45637 -0.85125 -1.87339 -0.85125 0.85674" pbc="T T T"
O        0.60886000       9.14149000      10.49407000      -0.00001400      -0.01073500      -0.01236000
O        8.68769000       3.59866000       8.68527000      -0.01372900      -0.01274900      -0.00811000
O        4.35290000       1.72065000       7.14177000       0.01170300       0.01331200       0.00538000
O        6.80602000       3.76896000       5.09049000       0.01148200      -0.01302600       0.02635000
O        8.02394000       1.35717000       0.08024000       0.00358500      -0.01463100      -0.00429100
O        7.59104000       1.26883000       2.73926000       0.00394200       0.01549300      -0.01523300
O        7.10472000       3.96276000       2.49027000       0.01583400       0.00435700       0.01114300
O        4.76407000       0.92890000       4.49780000       0.01750900      -0.00121900       0.00463600
O        9.07119000       4.33998000       6.06482000      -0.01237600      -0.01259400      -0.01614600
O        9.92381000       4.31763000       0.72707000      -0.00287000      -0.01055200      -0.00160400
O        5.22349000       1.69519000       1.81263000       0.00622000      -0.00986400      -0.00051200
O        7.32275000       6.68602000       5.23126000      -0.01132400       0.00365900      -0.01049100
O        1.95026000       6.60739000       5.40898000      -0.01119000      -0.00741700      -0.00189500
O        1.52511000       6.51786000       8.07704000      -0.00073800      -0.00428600      -0.01265500
O        1.04035000       9.21560000       7.83659000      -0.00120800       0.00839100      -0.00991800
O       -1.25184000       6.14778000       9.81048000      -0.00849000      -0.00083300      -0.01117400
O        3.81982000       9.60839000       6.09874000      -0.00164300      -0.01099900       0.00506300
O        9.49214000       3.55496000       3.38338000      -0.01147300      -0.00705500      -0.00303500
O        3.40696000       8.79107000       8.76990000       0.00821800      -0.01375600      -0.01001400
O        3.91199000       0.89527000       9.78329000       0.02112200      -0.00017300       0.00305400
O        6.71325000       1.24091000       8.04020000       0.00280600      -0.01296400       0.01698600
O        6.85259000       6.62622000       8.15162000      -0.00496000       0.01477100       0.01418400
O        6.23266000       9.21239000       7.79743000      -0.00310400      -0.02458900       0.00446400
O        3.89007000       6.16155000       9.79832000       0.03070000      -0.00515400      -0.01436300
O        9.02860000       9.54377000       6.05008000       0.01389200       0.01152800       0.01146500
O        8.62416000       8.79950000       8.70734000      -0.02311600       0.01236100       0.00026500
O        4.34053000       7.07914000       7.14513000       0.00341400       0.00817900      -0.01036600
O        6.63054000       9.16224000       5.16087000      -0.00262100       0.00886000       0.00038600
O        6.32658000       3.85672000       7.95220000      -0.00493300       0.00869000      -0.00558100
O        8.01295000       6.56963000       0.07809000      -0.00150200      -0.00066300       0.01060000
O        7.11344000       9.21297000       2.48927000       0.00587900       0.00690400      -0.00691500
O        4.76100000       6.21816000       4.27339000       0.01453000      -0.03835300      -0.02140400
O        9.91494000       9.57443000       0.74755000      -0.02666300      -0.00535600      -0.00883800
O        9.46639000       8.76952000       3.39230000      -0.00275000       0.01498800      -0.00589500
O        5.20938000       6.96589000       1.80969000       0.00417500       0.00152400      -0.00980000
O        5.78340000       3.91089000      10.50148000      -0.00448900      -0.00041500      -0.00886300
O        7.14782000       1.28650000       5.40759000      -0.00051200       0.00381700       0.01731100
O        7.58135000       6.51099000       2.67477000       0.00846900      -0.00367700       0.00060100
O       -0.82230000       6.96267000       7.15116000      -0.01344500       0.00237200      -0.00205200
O        5.80935000       9.13204000      10.44571000       0.01321300       0.01543700       0.00665100
O       -1.29121000       0.92268000       9.81365000      -0.02719800      -0.01753200       0.01026400
O        1.42137000       3.90690000       5.16050000       0.00228400      -0.00842200      -0.00011300
O        2.82678000       1.33902000       0.11969000      -0.00919500       0.00858300       0.01416200
O        2.38664000       1.28033000       2.76805000      -0.00248300      -0.00216400      -0.00260600
O        1.94295000       3.97058000       2.52481000      -0.01489400      -0.00345500      -0.00715000
O        0.62117000       3.88883000      10.48960000       0.00196000       0.00512000      -0.00266900
O       -0.42087000       0.90885000       4.50223000      -0.00876700      -0.01419700       0.01120700
O        1.05577000       3.96481000       7.83811000       0.00352100       0.00524400      -0.00491600
O        3.66106000       4.34303000       6.06410000      -0.01046300       0.03589400       0.02140900
O        0.02113000       6.95215000       1.83365000      -0.00248800      -0.00486100      -0.00069400
O        4.28843000       8.82176000       3.42390000       0.00602300      -0.02987400       0.02463300
O        1.93492000       1.35122000       5.42388000       0.00207600       0.00481200       0.01055600
O        4.72348000       9.56745000       0.78378000       0.03848900       0.01672400       0.01760500
O        4.30993000       3.52382000       3.42893000      -0.02241700      -0.02555700       0.01069900
O        0.02862000       1.71141000       1.84832000      -0.01655200       0.00167900       0.00997400
O        3.40074000       3.51337000       8.77623000       0.00756200      -0.00663600      -0.00456500
O       -0.39027000       6.13965000       4.49097000      -0.01349700       0.00440600       0.02115300
O        1.90761000       9.22302000       2.51992000      -0.00006900       0.01222800       0.00410600
O        2.37003000       6.54037000       2.75388000      -0.00808500      -0.01201300       0.00023500
O        2.83529000       6.58734000       0.11721000       0.00327800       0.00882400      -0.01497000
O        1.46904000       9.15221000       5.16020000       0.01394000       0.01249100       0.00627900
O       -0.85962000       1.70680000       7.15545000      -0.01201600       0.00134100       0.00937500
O        4.71540000       4.33681000       0.79209000       0.00234100       0.00607200      -0.01416000
O        1.50075000       1.26024000       8.08100000      -0.01541900       0.00469700      -0.00369600
Zr       0.34931000       0.20884000       6.41799000       0.00038600       0.00942600       0.00463000
Zr       2.18124000       5.01601000       9.48479000       0.00217600       0.01688200       0.00768400
Zr       7.75402000       7.99857000       6.78081000       0.01248600      -0.00426400      -0.00787300
Zr       2.62565000       2.82859000       6.84773000      -0.00734600      -0.02474600       0.00708800
Zr       5.14751000       7.60179000       8.97538000      -0.02538300      -0.02226200      -0.01883500
Zr       0.80433000       2.41030000       3.75956000       0.01527900      -0.01226800       0.02110400
Zr       3.50400000       2.84011000       1.53163000      -0.02015400      -0.01098600       0.00095000
Zr       3.12685000       5.03257000       4.20319000       0.00470700       0.01934800      -0.01547500
Zr       7.37096000      10.24571000       9.44039000       0.04556800       0.02103200       0.00670900
Zr       6.05051000       7.64539000       3.75619000       0.01110400       0.01014100      -0.00226200
Zr       2.62384000       8.07384000       6.83565000       0.00330300       0.00739000       0.00715600
Zr       8.24195000      10.25452000       4.16518000       0.01167300      -0.00239700      -0.01310400
Zr       2.18649000      10.26800000       9.48744000      -0.02613600      -0.00389900      -0.00659700
Zr       0.39430000       5.46413000       6.41225000      -0.00028900       0.01289600      -0.00853400
Zr       6.45474000       0.22102000       1.06826000      -0.03216900       0.02166400       0.01972200
Zr       8.18495000       5.02880000       4.18936000       0.01190500       0.01726700      -0.00584800
Zr       8.68716000       2.86189000       1.50262000       0.00101400       0.00839300       0.01323000
Zr       6.03270000       2.38792000       3.75768000      -0.01475200      -0.00720300      -0.02311300
Zr       0.80611000       7.64098000       3.76128000       0.00620300      -0.01381600      -0.01976700
Zr       3.47637000       8.09315000       1.53716000      -0.03160900      -0.01785300      -0.02471400
Zr       3.05290000      10.27401000       4.18114000       0.00120700       0.01721000       0.00217900
Zr       1.25571000       5.46104000       1.10830000       0.00488300       0.02979000       0.01977900
Zr       5.58234000       0.21539000       6.40226000      -0.00700100       0.00947700      -0.02266200
Zr       7.35795000       5.03028000       9.42395000      -0.00914800      -0.01140700       0.00008600
Zr       7.77156000       2.89471000       6.79266000      -0.00109300      -0.00050300      -0.01473000
Zr       5.16900000       2.43095000       9.04117000       0.00068400       0.01086700      -0.00393700
Zr      -0.06172000       7.64537000       9.06271000       0.02382500       0.00318900       0.02460800
Zr      -0.05978000       2.39855000       9.06073000       0.00643800      -0.02137400       0.01135400
Zr       6.45542000       5.45426000       1.08177000      -0.00090400       0.00756700      -0.00399300
Zr       8.67582000       8.07893000       1.47612000       0.02384400      -0.01363000       0.02873900
Zr       1.24519000       0.22377000       1.10912000       0.03782500       0.00708700      -0.02671200
