95
Lattice="10.381444 0.0 -0.053824 0.0 10.490337 0.0 -1.746774 0.0 10.614441" Properties=species:S:1:pos:R:3:forces:R:3 energy=-895.84296183 stress="9.56806 -0.61184 -1.87297 -0.61184 4.46708 -0.85043 -1.87297 -0.85043 0.88096" pbc="T T T"
O        0.60868000       9.14085000      10.49333000       0.00768400      -0.00127300      -0.00141000
O        8.68837000       3.59978000       8.68387000      -0.00315500      -0.02251800      -0.00613400
O        4.35418000       1.72293000       7.14217000       0.00347000       0.00981100      -0.00268200
O        6.80605000       3.76950000       5.09173000       0.01000500      -0.00587100       0.01053000
O        8.02416000       1.35704000       0.08140000      -0.00128400      -0.00563500      -0.00521800
O        7.59157000       1.26892000       2.73989000      -0.00463200       0.01403000      -0.01046900
O        7.10551000       3.96187000       2.49100000       0.00208400       0.02310200       0.00169900
O        4.76316000       0.93006000       4.49918000       0.02427700      -0.00159900       0.00092300
O        9.07263000       4.33824000       6.06371000      -0.01052000      -0.00394400      -0.01834700
O        9.92488000       4.31571000       0.72534000       0.00818800       0.00170600       0.00669900
O        5.22297000       1.69364000       1.81383000      -0.00308200       0.00674500       0.00015800
O        7.32147000       6.68642000       5.23100000      -0.00905500       0.00646200      -0.01140000
O        1.94980000       6.60753000       5.40777000      -0.00431100      -0.00409300      -0.00015700
O        1.52543000       6.51729000       8.07679000       0.00027900       0.00382200      -0.01372700
O        1.04089000       9.21622000       7.83611000      -0.00332200       0.00325300       0.00418300
O       -1.25290000       6.14879000       9.80979000       0.00900400       0.00342500      -0.00161200
O        3.82019000       9.60983000       6.10047000      -0.01222100      -0.01152400       0.00095000
O        9.49148000       3.55463000       3.38327000      -0.00237800       0.00259400       0.00278800
O        3.40691000       8.78915000       8.77076000      -0.00912300      -0.00246200      -0.00988800
O        3.91215000       0.89445000       9.78354000       0.01583600       0.00457900      -0.00264300
O        6.71354000       1.24041000       8.04152000      -0.00219900      -0.00767400       0.00443000
O        6.85268000       6.62574000       8.15209000       0.00121500       0.00987800       0.00291500
O        6.23293000       9.21107000       7.79713000      -0.00506700      -0.00995500      -0.01005400
O        3.89302000       6.16000000       9.79679000       0.00360000      -0.01744300      -0.00904800
O        9.02849000       9.54290000       6.05012000       0.01425700       0.01559100       0.00911000
O        8.62400000       8.80036000       8.70696000       0.00565400      -0.00531200      -0.00697300
O        4.34221000       7.08179000       7.14125000       0.01109000      -0.00064800      -0.00885400
O        6.62953000       9.16340000       5.16012000       0.00120700       0.00841700       0.00057300
O        6.32630000       3.85633000       7.95170000      -0.00396400       0.00760500      -0.00172400
O        8.01430000       6.56910000       0.07797000      -0.00798800      -0.00222200       0.01900300
O        7.11315000       9.21309000       2.48810000       0.00492300       0.00103300       0.00610400
O        4.76419000       6.21213000       4.26511000       0.02291900      -0.02727900      -0.02145600
O        9.91465000       9.57352000       0.74657000       0.00117700       0.00328600       0.00524200
O        9.46563000       8.76920000       3.39227000       0.00157200       0.01395700      -0.00705000
O        5.21012000       6.96831000       1.80744000       0.00032300      -0.00290100      -0.01203300
O        5.78392000       3.91102000      10.50138000      -0.00936500       0.00187300      -0.00193900
O        7.14794000       1.28747000       5.40803000      -0.00379300      -0.00640800       0.01204700
O        7.58148000       6.51148000       2.67460000       0.00580000      -0.00805000      -0.00217800
O       -0.82264000       6.96215000       7.15055000      -0.00554800       0.00134000       0.00467900
O        5.81053000       9.13202000      10.44441000       0.00281400       0.00599100       0.01320400
O       -1.29259000       0.92385000       9.81586000      -0.00020400      -0.00298800       0.00576200
O        1.42162000       3.90642000       5.16023000       0.00124000      -0.00930500       0.00221100
O        2.82687000       1.33830000       0.12081000      -0.00745200       0.00970000       0.00886800
O        2.38566000       1.28075000       2.76946000       0.00508300       0.00199400      -0.01232400
O        1.94212000       3.97193000       2.52427000      -0.00908600      -0.01064500      -0.00563400
O        0.62253000       3.88865000      10.48933000      -0.00623800       0.00253100       0.00382900
O       -0.42194000       0.90859000       4.50327000      -0.00120300      -0.00892000       0.01355400
O        1.05579000       3.96472000       7.83862000       0.00456500       0.00089500      -0.00439300
O        3.65411000       4.34878000       6.06729000      -0.01219900       0.03360100       0.01128100
O        0.02096000       6.95164000       1.83359000      -0.00243100      -0.00282000       0.00116600
O        4.28775000       8.82104000       3.42569000      -0.00213200      -0.02952400       0.01537700
O        1.93367000       1.35097000       5.42493000       0.00836700       0.00783600       0.01323500
O        4.72447000       9.56732000       0.78473000       0.00753800       0.00553500       0.00749400
O        4.30784000       3.52148000       3.43085000      -0.02250800      -0.02476800       0.00538500
O        0.02824000       1.71029000       1.85064000      -0.01362000      -0.00355000      -0.00012900
O        3.40107000       3.51289000       8.77716000      -0.00422200      -0.00372100      -0.00336400
O       -0.39018000       6.13973000       4.49147000      -0.01571500       0.00409600       0.01156300
O        1.90753000       9.22402000       2.52022000       0.00406000       0.00523300      -0.00643500
O        2.36931000       6.54065000       2.75336000       0.00068800      -0.00782100      -0.00819500
O        2.83515000       6.58745000       0.11626000       0.00621100       0.00842500      -0.00712900
O        1.46961000       9.15240000       5.16057000       0.01340800       0.00828200       0.00018400
O       -0.86025000       1.70574000       7.15681000      -0.00883800       0.00022200       0.01208300
O        4.71617000       4.33631000       0.79244000       0.00031000       0.01033700      -0.00824900
O        1.50013000       1.26064000       8.08184000      -0.00637300       0.00184600       0.00020300
Zr       0.34917000       0.20922000       6.41920000      -0.01238100      -0.00672700      -0.01262300
Zr       2.18142000       5.01635000       9.48534000       0.01482600       0.00099200      -0.00449900
Zr       7.75378000       7.99849000       6.77994000       0.01093400      -0.00348300       0.00699400
Zr       2.62510000       2.82758000       6.84886000       0.00652600      -0.01352600       0.01190000
Zr       5.14786000       7.60042000       8.97382000      -0.00919200       0.00546700      -0.00666100
Zr       0.80334000       2.40953000       3.76048000       0.00721500      -0.01271900       0.01729300
Zr       3.50369000       2.84005000       1.53245000      -0.00991600      -0.00442100       0.00504000
Zr       3.12618000       5.03364000       4.20123000       0.01154300       0.01393000      -0.00544700
Zr       7.37260000      10.24565000       9.44068000       0.00520200       0.00963700       0.00671900
Zr       6.05044000       7.64683000       3.75575000       0.00045400      -0.00455200      -0.00581300
Zr       2.62454000       8.07362000       6.83574000      -0.00192300       0.01423100      -0.00445400
Zr       8.24122000      10.25449000       4.16500000       0.02253300       0.00091300      -0.01462100
Zr       2.18703000      10.26767000       9.48771000      -0.00574800      -0.01392300      -0.00887400
Zr       0.39530000       5.46388000       6.41192000      -0.01220200       0.01374000      -0.00645200
Zr       6.45421000       0.22129000       1.06854000      -0.00469700       0.01856600       0.01345900
Zr       8.18461000       5.03005000       4.18888000       0.01015000       0.00384500       0.01083500
Zr       8.68798000       2.86262000       1.50286000      -0.00799700      -0.01427100       0.00990500
Zr       6.03297000       2.38858000       3.75813000      -0.01264500      -0.01293200      -0.01866500
Zr       0.80609000       7.64071000       3.76007000      -0.00363700       0.00566600       0.00997500
Zr       3.47526000       8.09300000       1.53637000      -0.00959900      -0.00264800      -0.00579200
Zr       3.05267000      10.27495000       4.18183000       0.00617100      -0.00105900       0.00694400
Zr       1.25509000       5.46231000       1.10822000      -0.00132000       0.00688100       0.00117000
Zr       5.58230000       0.21599000       6.40232000      -0.00161400       0.00531800      -0.00244400
Zr       7.35800000       5.02948000       9.42351000      -0.00954900      -0.00223300      -0.00308900
Zr       7.77153000       2.89454000       6.79215000       0.00266900       0.00359900      -0.00246600
Zr       5.16929000       2.43116000       9.04220000       0.00778700       0.00201700      -0.00551400
Zr      -0.06067000       7.64569000       9.06241000      -0.00767300      -0.00542800       0.00719600
Zr      -0.05927000       2.39795000       9.06159000      -0.01554200      -0.00031400       0.00481500
Zr       6.45549000       5.45487000       1.08161000       0.00845400       0.00118000      -0.00440900
Zr       8.67578000       8.07875000       1.47583000       0.01412000      -0.00218100       0.00996700
Zr       1.24624000       0.22452000       1.10886000       0.00143400      -0.00372600      -0.00697100
