95
Lattice="10.381444 0.0 -0.053824 0.0 10.490337 0.0 -1.746774 0.0 10.614441" Properties=species:S:1:pos:R:3:forces:R:3 energy=-895.84329914 stress="9.54832 -0.61875 -1.8725 -0.61875 4.47533 -0.85209 -1.8725 -0.85209 0.89496" pbc="T T T"
O        0.60856000       9.14043000      10.49285000       0.01189400       0.00460100       0.00549200
O        8.68881000       3.60051000       8.68297000       0.00547000      -0.02923000      -0.00483300
O        4.35500000       1.72440000       7.14242000      -0.00188600       0.00830900      -0.00689100
O        6.80607000       3.76985000       5.09253000       0.00911000      -0.00194900      -0.00008300
O        8.02430000       1.35695000       0.08215000      -0.00417400      -0.00062000      -0.00635600
O        7.59192000       1.26899000       2.74030000      -0.01075500       0.01286000      -0.00822700
O        7.10602000       3.96129000       2.49148000      -0.00598600       0.03510500      -0.00455900
O        4.76258000       0.93082000       4.50008000       0.02885900      -0.00225500      -0.00207800
O        9.07356000       4.33712000       6.06299000      -0.00972900       0.00230800      -0.02007000
O        9.92557000       4.31447000       0.72423000       0.01583800       0.00980600       0.01191800
O        5.22264000       1.69264000       1.81460000      -0.01043200       0.01699000       0.00054700
O        7.32064000       6.68668000       5.23084000      -0.00778500       0.00749000      -0.01252500
O        1.94950000       6.60763000       5.40699000      -0.00033300      -0.00189500       0.00073700
O        1.52564000       6.51692000       8.07664000       0.00125100       0.00924100      -0.01401400
O        1.04124000       9.21661000       7.83579000      -0.00416600       0.00041600       0.01258600
O       -1.25358000       6.14945000       9.80934000       0.02092000       0.00576200       0.00462500
O        3.82042000       9.61076000       6.10159000      -0.01952900      -0.01213800      -0.00120400
O        9.49106000       3.55441000       3.38320000       0.00309600       0.00928300       0.00622100
O        3.40688000       8.78791000       8.77131000      -0.01973400       0.00463300      -0.00852000
O        3.91224000       0.89392000       9.78370000       0.01251600       0.00806500      -0.00640000
O        6.71372000       1.24008000       8.04236000      -0.00516400      -0.00379700      -0.00363300
O        6.85274000       6.62542000       8.15239000       0.00525200       0.00675900      -0.00472900
O        6.23311000       9.21021000       7.79693000      -0.00648800       0.00057200      -0.01945800
O        3.89493000       6.15900000       9.79580000      -0.01228200      -0.02617300      -0.00475400
O        9.02842000       9.54234000       6.05014000       0.01433000       0.01813500       0.00723200
O        8.62390000       8.80091000       8.70672000       0.02398900      -0.01724700      -0.01104100
O        4.34329000       7.08349000       7.13875000       0.01576100      -0.00730100      -0.00812200
O        6.62888000       9.16415000       5.15964000       0.00447700       0.00679600       0.00091200
O        6.32612000       3.85607000       7.95138000      -0.00349500       0.00719900       0.00098400
O        8.01518000       6.56876000       0.07789000      -0.01168700      -0.00302000       0.02525400
O        7.11296000       9.21318000       2.48734000       0.00446700      -0.00418300       0.01447400
O        4.76625000       6.20822000       4.25976000       0.02548500      -0.01770600      -0.01990700
O        9.91445000       9.57293000       0.74594000       0.01872800       0.00909800       0.01462500
O        9.46513000       8.76899000       3.39225000       0.00540500       0.01357600      -0.00753600
O        5.21060000       6.96988000       1.80599000      -0.00165400      -0.00576200      -0.01405300
O        5.78426000       3.91110000      10.50131000      -0.01213200       0.00350300       0.00226900
O        7.14802000       1.28810000       5.40832000      -0.00576800      -0.01309500       0.00820800
O        7.58157000       6.51180000       2.67449000       0.00426000      -0.01053200      -0.00373300
O       -0.82286000       6.96181000       7.15015000      -0.00020000       0.00063300       0.00973800
O        5.81129000       9.13200000      10.44357000      -0.00462200      -0.00007900       0.01716500
O       -1.29348000       0.92462000       9.81729000       0.01763400       0.00621300       0.00258200
O        1.42178000       3.90610000       5.16005000      -0.00018900      -0.00955600       0.00409800
O        2.82692000       1.33783000       0.12153000      -0.00619400       0.01061900       0.00549500
O        2.38502000       1.28103000       2.77038000       0.00954400       0.00477300      -0.01788900
O        1.94159000       3.97281000       2.52393000      -0.00487300      -0.01522400      -0.00488000
O        0.62341000       3.88853000      10.48915000      -0.01062500       0.00101800       0.00760600
O       -0.42262000       0.90841000       4.50395000       0.00269800      -0.00537800       0.01506000
O        1.05581000       3.96466000       7.83895000       0.00528600      -0.00216700      -0.00411300
O        3.64962000       4.35250000       6.06935000      -0.01446000       0.03147200       0.00513500
O        0.02086000       6.95130000       1.83355000      -0.00264200      -0.00148600       0.00282500
O        4.28731000       8.82057000       3.42685000      -0.00715200      -0.03021800       0.00872500
O        1.93286000       1.35082000       5.42560000       0.01176400       0.00888600       0.01547100
O        4.72511000       9.56724000       0.78535000      -0.01200000      -0.00063400       0.00131100
O        4.30649000       3.51996000       3.43209000      -0.02311400      -0.02497200       0.00229400
O        0.02800000       1.70956000       1.85213000      -0.00947800      -0.00673600      -0.00710600
O        3.40128000       3.51258000       8.77776000      -0.01180700      -0.00133900      -0.00315400
O       -0.39011000       6.13978000       4.49178000      -0.01722700       0.00399900       0.00513800
O        1.90747000       9.22466000       2.52042000       0.00636000       0.00012100      -0.01343100
O        2.36884000       6.54083000       2.75302000       0.00650200      -0.00460400      -0.01382200
O        2.83506000       6.58752000       0.11565000       0.00821200       0.00828600      -0.00173300
O        1.46997000       9.15252000       5.16080000       0.01242300       0.00543200      -0.00408800
O       -0.86067000       1.70505000       7.15769000      -0.00691000      -0.00033400       0.01301800
O        4.71668000       4.33598000       0.79266000      -0.00145900       0.01332000      -0.00458300
O        1.49973000       1.26089000       8.08238000      -0.00143100       0.00071100       0.00343700
Zr       0.34909000       0.20946000       6.41999000      -0.02023200      -0.01765300      -0.02405200
Zr       2.18154000       5.01657000       9.48569000       0.02304400      -0.00893100      -0.01233000
Zr       7.75362000       7.99844000       6.77938000       0.01001700      -0.00298400       0.01641600
Zr       2.62475000       2.82693000       6.84959000       0.01562900      -0.00544100       0.01455400
Zr       5.14809000       7.59954000       8.97282000       0.00053700       0.02362100       0.00158500
Zr       0.80271000       2.40903000       3.76107000       0.00217000      -0.01262100       0.01465200
Zr       3.50349000       2.84001000       1.53297000      -0.00337800      -0.00000600       0.00786700
Zr       3.12575000       5.03434000       4.19996000       0.01604300       0.01062800       0.00155900
Zr       7.37367000      10.24560000       9.44086000      -0.02053600       0.00233900       0.00676800
Zr       6.05039000       7.64776000       3.75547000      -0.00745000      -0.01480800      -0.00832300
Zr       2.62499000       8.07348000       6.83579000      -0.00484700       0.01839000      -0.01165700
Zr       8.24075000      10.25448000       4.16488000       0.02968800       0.00306900      -0.01556600
Zr       2.18739000      10.26746000       9.48788000       0.00746700      -0.02038400      -0.01049300
Zr       0.39595000       5.46371000       6.41171000      -0.01965100       0.01406000      -0.00501400
Zr       6.45387000       0.22147000       1.06873000       0.01310000       0.01652700       0.00948300
Zr       8.18438000       5.03086000       4.18857000       0.00901600      -0.00489500       0.02124700
Zr       8.68851000       2.86309000       1.50301000      -0.01373200      -0.02850500       0.00763400
Zr       6.03314000       2.38902000       3.75842000      -0.01092000      -0.01621800      -0.01586200
Zr       0.80607000       7.64055000       3.75929000      -0.01012300       0.01818700       0.02919400
Zr       3.47454000       8.09290000       1.53586000       0.00465500       0.00705200       0.00599100
Zr       3.05253000      10.27556000       4.18228000       0.00908500      -0.01225200       0.01008000
Zr       1.25469000       5.46313000       1.10816000      -0.00519000      -0.00824500      -0.01098500
Zr       5.58227000       0.21638000       6.40235000       0.00215500       0.00286500       0.01064100
Zr       7.35803000       5.02896000       9.42322000      -0.00964900       0.00265200      -0.00558500
Zr       7.77152000       2.89443000       6.79182000       0.00460600       0.00664200       0.00625500
Zr       5.16947000       2.43130000       9.04286000       0.01248100      -0.00331100      -0.00700300
Zr      -0.06000000       7.64591000       9.06222000      -0.02778000      -0.01133200      -0.00401200
Zr      -0.05894000       2.39757000       9.06214000      -0.02982600       0.01367100       0.00029600
Zr       6.45553000       5.45527000       1.08151000       0.01410200      -0.00274700      -0.00470400
Zr       8.67575000       8.07864000       1.47564000       0.00793900       0.00518600      -0.00202400
Zr       1.24693000       0.22500000       1.10869000      -0.02238200      -0.01091500       0.00573200
