95
Lattice="10.381444 0.0 -0.053824 0.0 10.490337 0.0 -1.746774 0.0 10.614441" Properties=species:S:1:pos:R:3:forces:R:3 energy=-895.84599438 stress="9.56074 -0.56956 -1.7822 -0.56956 4.60636 -0.86207 -1.7822 -0.86207 0.92558" pbc="T T T"
O        0.61017000       9.14034000      10.49250000       0.00019400       0.00584500      -0.00017200
O        8.68902000       3.59985000       8.67997000      -0.00312300       0.00236400       0.01067600
O        4.35772000       1.72979000       7.14172000       0.00160200      -0.00058000      -0.01606700
O        6.80671000       3.76991000       5.09353000      -0.00939300      -0.00599400      -0.00932000
O        8.02434000       1.35671000       0.08328000       0.00489500       0.00208000      -0.00442500
O        7.59128000       1.27098000       2.73995000      -0.00525600      -0.00146700       0.00586900
O        7.10631000       3.96451000       2.49190000      -0.00507000      -0.00376900       0.00681800
O        4.76454000       0.93126000       4.50232000       0.00721000      -0.02549500      -0.00966300
O        9.07536000       4.33451000       6.05842000      -0.00220400       0.00529600       0.01299700
O        9.92862000       4.31149000       0.72257000      -0.00674500       0.00382400       0.00461000
O        5.22101000       1.69224000       1.81687000       0.00010800       0.01739300      -0.01127300
O        7.31730000       6.68908000       5.22917000       0.01155900      -0.00067300       0.00683900
O        1.94861000       6.60840000       5.40442000       0.00338100       0.00834600      -0.00003000
O        1.52653000       6.51753000       8.07357000       0.00051200      -0.00283000       0.00301600
O        1.04164000       9.21757000       7.83626000      -0.00562600      -0.01014800       0.00189800
O       -1.25366000       6.15100000       9.80899000       0.00569500      -0.01512200       0.00849200
O        3.81855000       9.61279000       6.10444000       0.00492300       0.00798100       0.00238000
O        9.49116000       3.55469000       3.38389000       0.00765400       0.00648400       0.00521600
O        3.40451000       8.78426000       8.77131000      -0.00261000       0.00521800      -0.00380100
O        3.91478000       0.89345000       9.78338000      -0.01194500      -0.01169300      -0.00356900
O        6.71327000       1.23841000       8.04440000      -0.00046200       0.00061300      -0.00651000
O        6.85387000       6.62535000       8.15273000       0.00178600       0.00360200       0.00282300
O        6.23281000       9.20836000       7.79405000       0.00138100       0.00968900       0.01277400
O        3.89951000       6.15311000       9.79113000      -0.01173800       0.00696900      -0.02127000
O        9.02939000       9.54272000       6.05067000      -0.01233200      -0.01052400      -0.00727900
O        8.62598000       8.80131000       8.70452000      -0.00217700       0.00748500       0.00456800
O        4.34917000       7.08760000       7.13027000      -0.00416500       0.00540600       0.00189000
O        6.62859000       9.16714000       5.15824000       0.01309000      -0.01482000       0.00035800
O        6.32533000       3.85656000       7.95110000       0.00676500       0.00182300      -0.00213600
O        8.01614000       6.56772000       0.08048000      -0.00149800       0.00948200      -0.01676900
O        7.11330000       9.21338000       2.48734000       0.00331900       0.00491500       0.00838800
O        4.77698000       6.19274000       4.23988000       0.01564800      -0.02445800      -0.01315100
O        9.91670000       9.57246000       0.74633000      -0.00309800      -0.00484900       0.00059300
O        9.46544000       8.77049000       3.39113000       0.01099200       0.01259000       0.00339600
O        5.21215000       6.97358000       1.79924000       0.00235700       0.00012600      -0.00269400
O        5.78394000       3.91132000      10.50157000       0.00647500      -0.00526500       0.00396600
O        7.14764000       1.28780000       5.41009000       0.00934700       0.00269700      -0.00242500
O        7.58258000       6.51189000       2.67352000       0.00303100       0.01047400       0.00421200
O       -0.82372000       6.96054000       7.15017000       0.00400900      -0.00629300       0.00633900
O        5.81263000       9.13181000      10.44361000      -0.00651700      -0.00351300      -0.00026400
O       -1.29475000       0.92699000       9.82185000       0.00315500       0.00180900      -0.01341700
O        1.42239000       3.90398000       5.16019000       0.00315000       0.01025600       0.00649100
O        2.82622000       1.33789000       0.12449000       0.00010400       0.00910200      -0.01271200
O        2.38456000       1.28199000       2.77141000       0.00061800      -0.00499300       0.00119500
O        1.93919000       3.97291000       2.52282000       0.00075200      -0.00231700       0.00294000
O        0.62418000       3.88874000      10.48981000      -0.01084600       0.01113200      -0.00385800
O       -0.42360000       0.90773000       4.50783000       0.01203300       0.01191700      -0.00338500
O        1.05643000       3.96444000       7.83879000      -0.01110200       0.00243700       0.01184400
O        3.63302000       4.36923000       6.07637000      -0.02101700       0.00914200       0.00423300
O        0.01968000       6.95097000       1.83464000       0.01113200      -0.00785800      -0.00058800
O        4.28374000       8.81466000       3.43191000      -0.00378000      -0.02007900      -0.00487200
O        1.93267000       1.35107000       5.42918000       0.01149900      -0.00303900      -0.00096900
O        4.72540000       9.56757000       0.78717000      -0.00844300       0.01097200      -0.00715900
O        4.29911000       3.51149000       3.43684000      -0.00650900      -0.00007400       0.01003300
O        0.02495000       1.70650000       1.85583000      -0.00113000      -0.00409700       0.00154700
O        3.40113000       3.51035000       8.77911000      -0.01207000      -0.00440100       0.00505900
O       -0.39191000       6.14175000       4.49321000      -0.00474900       0.00921300       0.00453500
O        1.90817000       9.22616000       2.51971000       0.00049300      -0.00726700       0.00136600
O        2.36825000       6.54125000       2.75063000       0.00184600      -0.00251700       0.00355500
O        2.83627000       6.58902000       0.11391000       0.00257900      -0.00956700      -0.00665600
O        1.47242000       9.15348000       5.16051000      -0.01140700      -0.00225300       0.00292300
O       -0.86299000       1.70238000       7.16176000       0.00029700      -0.00032400       0.00310200
O        4.71776000       4.33694000       0.79333000      -0.02466600      -0.00081400       0.00406900
O        1.49888000       1.26147000       8.08450000       0.00636900       0.00363000       0.00592300
Zr       0.34620000       0.20820000       6.42090000       0.01575000       0.00996400       0.00394600
Zr       2.18345000       5.01573000       9.48462000       0.01299000       0.00881300       0.00102800
Zr       7.75414000       7.99822000       6.77945000      -0.01002300       0.00330400      -0.00818700
Zr       2.62497000       2.82481000       6.85463000       0.00619500       0.00097600      -0.02103400
Zr       5.14825000       7.60045000       8.97030000      -0.00506200      -0.00684400       0.01192300
Zr       0.80187000       2.40679000       3.76407000       0.01496400      -0.00021000      -0.00668300
Zr       3.50099000       2.84047000       1.53426000       0.01679200      -0.00676000      -0.00051400
Zr       3.12631000       5.03756000       4.19581000      -0.00069000      -0.00342300      -0.00473700
Zr       7.37415000      10.24485000       9.44192000      -0.00286400      -0.00028000       0.00336500
Zr       6.04993000       7.64843000       3.75320000       0.01199100       0.00330700      -0.00194200
Zr       2.62481000       8.07457000       6.83484000       0.00248800      -0.00986600      -0.00635900
Zr       8.24220000      10.25428000       4.16365000      -0.01484900       0.00344500       0.00877200
Zr       2.18847000      10.26521000       9.48742000       0.00646100       0.01755200       0.01152200
Zr       0.39592000       5.46447000       6.41129000       0.00587300      -0.00202800      -0.01314500
Zr       6.45384000       0.22343000       1.07003000      -0.00070200       0.00199700      -0.00591000
Zr       8.18371000       5.03178000       4.19023000      -0.00578600       0.00161700      -0.01096900
Zr       8.68870000       2.86186000       1.50487000      -0.00819400       0.00540000      -0.00542500
Zr       6.03205000       2.38933000       3.75864000      -0.01059900      -0.00593000       0.00247800
Zr       0.80483000       7.64216000       3.76080000       0.00717100      -0.00035200      -0.01234200
Zr       3.47303000       8.09358000       1.53495000       0.00445300       0.00158700       0.00869200
Zr       3.05458000      10.27548000       4.18398000       0.00166500      -0.00159600      -0.00911300
Zr       1.25435000       5.46311000       1.10580000      -0.00573300       0.00462600       0.01247600
Zr       5.58327000       0.21770000       6.40375000       0.00209800      -0.00632500      -0.00571000
Zr       7.35770000       5.02801000       9.42192000      -0.00864700       0.00867100       0.01336000
Zr       7.77220000       2.89470000       6.79179000      -0.00162200      -0.00453600       0.00738000
Zr       5.17125000       2.43141000       9.04350000       0.00804200      -0.00413300       0.00629500
Zr      -0.06060000       7.64470000       9.06125000       0.00232000       0.00649100       0.00220500
Zr      -0.06038000       2.39872000       9.06411000      -0.01178200      -0.01464200      -0.00494300
Zr       6.45769000       5.45545000       1.08138000       0.00022800      -0.00829900      -0.00293700
Zr       8.67646000       8.07855000       1.47479000      -0.00047500      -0.00471500       0.00643900
Zr       1.24676000       0.22512000       1.10935000      -0.00273200      -0.00103500       0.01757400
