95
Lattice="10.381444 0.0 -0.053824 0.0 10.490337 0.0 -1.746774 0.0 10.614441" Properties=species:S:1:pos:R:3:forces:R:3 energy=-895.84604533 stress="9.53016 -0.56742 -1.77299 -0.56742 4.61673 -0.867 -1.77299 -0.867 0.92481" pbc="T T T"
O        0.61042000       9.14043000      10.49254000      -0.00193300       0.00430900      -0.00240000
O        8.68874000       3.59990000       8.67972000       0.00549600      -0.00093100       0.01174200
O        4.35807000       1.73033000       7.14154000       0.00110800      -0.00062000      -0.01736300
O        6.80668000       3.76979000       5.09339000      -0.00924400      -0.00407000      -0.00485800
O        8.02436000       1.35670000       0.08333000       0.00553600       0.00206700      -0.00380100
O        7.59115000       1.27122000       2.73982000      -0.00548500      -0.00210000       0.01051600
O        7.10625000       3.96496000       2.49187000      -0.00408700      -0.00802200       0.01175000
O        4.76477000       0.93104000       4.50252000       0.00794300      -0.02464900      -0.01138500
O        9.07557000       4.33432000       6.05796000      -0.00379900       0.00396600       0.01629700
O        9.92876000       4.31111000       0.72244000      -0.00401800       0.00668700       0.00410600
O        5.22095000       1.69229000       1.81708000      -0.00313200       0.01918400      -0.01356700
O        7.31699000       6.68944000       5.22907000       0.01395500      -0.00513100       0.00667600
O        1.94853000       6.60860000       5.40411000       0.00349900       0.00679800       0.00076900
O        1.52664000       6.51769000       8.07311000      -0.00019600      -0.00624300       0.00819100
O        1.04165000       9.21762000       7.83628000      -0.00640400      -0.01146000       0.00298900
O       -1.25376000       6.15097000       9.80902000       0.01011400      -0.01351100       0.00844000
O        3.81832000       9.61312000       6.10466000       0.00688400       0.00702800       0.00468400
O        9.49134000       3.55468000       3.38399000       0.00493000       0.00936000       0.00581900
O        3.40429000       8.78381000       8.77120000      -0.00417000       0.00913200      -0.00164300
O        3.91516000       0.89343000       9.78334000      -0.01893700      -0.01574900      -0.00436600
O        6.71316000       1.23820000       8.04459000       0.00034600       0.00162000      -0.00770100
O        6.85404000       6.62535000       8.15276000       0.00124400       0.00449100       0.00326300
O        6.23277000       9.20829000       7.79377000       0.00196500       0.00890500       0.01608600
O        3.90002000       6.15257000       9.79047000      -0.01562700       0.00628200      -0.02187100
O        9.02939000       9.54274000       6.05066000      -0.01280700      -0.01292500      -0.00705500
O        8.62610000       8.80149000       8.70428000      -0.00037000       0.00609400       0.00546300
O        4.34988000       7.08799000       7.12943000      -0.00892900       0.00826500       0.00186800
O        6.62876000       9.16742000       5.15809000       0.01055900      -0.01779400       0.00083800
O        6.32529000       3.85668000       7.95117000       0.00755300       0.00007600      -0.00534600
O        8.01619000       6.56767000       0.08069000      -0.00059700       0.01006300      -0.02029600
O        7.11339000       9.21348000       2.48743000       0.00193100       0.00407000       0.00813100
O        4.77830000       6.19092000       4.23765000       0.01533000      -0.02411400      -0.01289400
O        9.91702000       9.57245000       0.74645000      -0.00561100      -0.00728800      -0.00151700
O        9.46567000       8.77073000       3.39099000       0.00877200       0.01434900       0.00543700
O        5.21236000       6.97390000       1.79845000       0.00181000       0.00214200      -0.00031100
O        5.78393000       3.91126000      10.50163000       0.00745900      -0.00451300       0.00406100
O        7.14762000       1.28766000       5.41025000       0.01136500       0.00640600      -0.00268700
O        7.58273000       6.51197000       2.67339000       0.00270700       0.01160500       0.00640200
O       -0.82383000       6.96036000       7.15017000       0.00574600      -0.00656200       0.00780500
O        5.81270000       9.13177000      10.44369000      -0.00548500      -0.00353800      -0.00251900
O       -1.29501000       0.92711000       9.82230000       0.00786200       0.00579200      -0.01657900
O        1.42248000       3.90376000       5.16023000       0.00308300       0.01308200       0.00678000
O        2.82613000       1.33793000       0.12481000       0.00081700       0.01059000      -0.01652100
O        2.38456000       1.28202000       2.77159000      -0.00040300      -0.00403700      -0.00043300
O        1.93892000       3.97281000       2.52280000       0.00058000      -0.00007200       0.00111000
O        0.62415000       3.88884000      10.48992000      -0.01107100       0.01175000      -0.00629500
O       -0.42357000       0.90775000       4.50822000       0.01125500       0.01287400      -0.00425100
O        1.05648000       3.96445000       7.83866000      -0.01370800       0.00194800       0.01834300
O        3.63113000       4.37120000       6.07711000      -0.02155800       0.00418300       0.00415900
O        0.01947000       6.95108000       1.83490000       0.01700500      -0.01476400      -0.00445100
O        4.28315000       8.81393000       3.43250000       0.00204200      -0.02243500      -0.00759200
O        1.93279000       1.35104000       5.42948000       0.01030200      -0.00178900       0.00068500
O        4.72539000       9.56771000       0.78732000      -0.00963700       0.01094200      -0.00777500
O        4.29828000       3.51050000       3.43745000      -0.00618900       0.00345100       0.00884100
O        0.02444000       1.70618000       1.85622000       0.00382700      -0.00610300       0.00202400
O        3.40123000       3.50993000       8.77923000      -0.01822700      -0.00042600       0.00705700
O       -0.39208000       6.14217000       4.49332000      -0.00714200       0.00558200       0.00686000
O        1.90826000       9.22623000       2.51969000       0.00063900      -0.00674000       0.00007100
O        2.36819000       6.54137000       2.75045000       0.00222500      -0.00554700       0.00305000
O        2.83647000       6.58922000       0.11379000       0.00097600      -0.01284400      -0.01043300
O        1.47264000       9.15357000       5.16039000      -0.01289700      -0.00253100       0.00619500
O       -0.86327000       1.70201000       7.16214000       0.00114600       0.00279900       0.00536400
O        4.71783000       4.33709000       0.79349000      -0.03008400      -0.00264300       0.00280800
O        1.49888000       1.26148000       8.08473000       0.00540300       0.00605400       0.00735400
Zr       0.34588000       0.20810000       6.42125000       0.02072400       0.01215800      -0.00193100
Zr       2.18344000       5.01558000       9.48440000       0.02319500       0.01307000       0.00414500
Zr       7.75415000       7.99825000       6.77942000      -0.01150700       0.00356000      -0.00906500
Zr       2.62488000       2.82469000       6.85532000       0.01129900      -0.00101700      -0.03154700
Zr       5.14817000       7.60067000       8.97009000      -0.00447100      -0.01198700       0.01317800
Zr       0.80193000       2.40671000       3.76427000       0.01515700      -0.00452700      -0.00521800
Zr       3.50048000       2.84062000       1.53418000       0.02790800      -0.01128100       0.00565000
Zr       3.12635000       5.03786000       4.19530000       0.00007400      -0.00309700      -0.00338700
Zr       7.37416000      10.24462000       9.44198000      -0.00261200       0.00419100       0.00585800
Zr       6.04998000       7.64844000       3.75291000       0.01117700       0.00560700      -0.00120400
Zr       2.62463000       8.07456000       6.83480000       0.00835200      -0.00939600      -0.00955700
Zr       8.24222000      10.25417000       4.16370000      -0.01514200       0.00704300       0.00568100
Zr       2.18842000      10.26513000       9.48743000       0.01279600       0.01755000       0.01296200
Zr       0.39599000       5.46447000       6.41139000       0.00608200      -0.00051700      -0.02057400
Zr       6.45374000       0.22353000       1.07009000       0.00212600       0.00548400      -0.00535100
Zr       8.18345000       5.03171000       4.19040000      -0.00228900       0.00583400      -0.01416500
Zr       8.68876000       2.86187000       1.50514000      -0.01172000       0.00275700      -0.00896100
Zr       6.03189000       2.38953000       3.75888000      -0.01235400      -0.01225000      -0.00293300
Zr       0.80471000       7.64230000       3.76101000       0.00928100       0.00041600      -0.01716100
Zr       3.47289000       8.09367000       1.53484000       0.00536400       0.00133500       0.01131000
Zr       3.05503000      10.27540000       4.18400000      -0.00452200       0.00045100      -0.00696100
Zr       1.25457000       5.46285000       1.10542000      -0.01495100       0.01342800       0.01973000
Zr       5.58351000       0.21779000       6.40390000      -0.00128400      -0.00715500      -0.00710000
Zr       7.35779000       5.02797000       9.42183000      -0.01444800       0.00755700       0.01505400
Zr       7.77230000       2.89469000       6.79183000      -0.00363900      -0.00412500       0.00982600
Zr       5.17138000       2.43144000       9.04348000       0.01253300      -0.00487300       0.00991400
Zr      -0.06053000       7.64450000       9.06117000      -0.00044600       0.01004000       0.00220500
Zr      -0.06032000       2.39895000       9.06435000      -0.02148600      -0.02083300      -0.00755600
Zr       6.45796000       5.45536000       1.08149000      -0.00127500      -0.00689200      -0.00727000
Zr       8.67650000       8.07848000       1.47469000       0.00020700      -0.00409400       0.00826900
Zr       1.24683000       0.22513000       1.10950000      -0.00579900      -0.00122900       0.02003300
