95
Lattice="10.381444 0.0 -0.053824 0.0 10.490337 0.0 -1.746774 0.0 10.614441" Properties=species:S:1:pos:R:3:forces:R:3 energy=-895.84705612 stress="9.42303 -0.56646 -1.75193 -0.56646 4.63951 -0.86446 -1.75193 -0.86446 0.89653" pbc="T T T"
O        0.61111000       9.14098000      10.49252000      -0.01183300      -0.00027200       0.00392900
O        8.68818000       3.60002000       8.67963000       0.00454900      -0.00030600       0.01133100
O        4.35926000       1.73200000       7.13994000       0.00444000       0.00288200      -0.01043400
O        6.80605000       3.76916000       5.09267000      -0.00107900       0.00230900       0.00875100
O        8.02478000       1.35680000       0.08328000       0.00024800       0.00215800      -0.00128000
O        7.59041000       1.27187000       2.74002000      -0.00579200      -0.00290600       0.00822400
O        7.10582000       3.96590000       2.49246000       0.00002200      -0.00993700       0.00297400
O        4.76598000       0.92888000       4.50246000       0.01053700      -0.02108300      -0.01888900
O        9.07602000       4.33399000       6.05749000      -0.01280400      -0.00125900       0.01418800
O        9.92898000       4.31031000       0.72230000      -0.01109000       0.00559800       0.00921700
O        5.22059000       1.69360000       1.81693000       0.00940600       0.00702400      -0.01787600
O        7.31680000       6.69028000       5.22912000       0.01257300      -0.01605700      -0.00107600
O        1.94848000       6.60965000       5.40317000       0.00522600       0.00151700      -0.00824800
O        1.52697000       6.51783000       8.07213000       0.00151400      -0.00564400       0.00884300
O        1.04131000       9.21709000       7.83654000      -0.00792100      -0.00255700      -0.00333500
O       -1.25350000       6.15006000       9.80965000       0.00583900      -0.00279900       0.00225200
O        3.81801000       9.61458000       6.10566000       0.00553700       0.00027000       0.00450600
O        9.49220000       3.55522000       3.38464000      -0.00346000       0.01264800      -0.00009100
O        3.40335000       8.78292000       8.77077000       0.00306100       0.00948200       0.00354000
O        3.91524000       0.89244000       9.78297000       0.00159100      -0.00169000      -0.00193800
O        6.71283000       1.23764000       8.04474000       0.00321400       0.00636800      -0.00399400
O        6.85464000       6.62562000       8.15307000      -0.00479600       0.00378000       0.00722000
O        6.23276000       9.20858000       7.79384000       0.00170800       0.00425400       0.01455400
O        3.90074000       6.15122000       9.78708000      -0.00110200       0.00321600       0.00125000
O        9.02864000       9.54202000       6.05018000       0.00490500      -0.00087800      -0.00330700
O        8.62646000       8.80243000       8.70384000       0.00113500       0.00015400       0.00755100
O        4.35161000       7.08972000       7.12687000      -0.00526600       0.00767200       0.00250500
O        6.62991000       9.16727000       5.15765000      -0.00749400      -0.01600800       0.00289800
O        6.32559000       3.85705000       7.95106000      -0.00148000      -0.00524400       0.00148300
O        8.01633000       6.56813000       0.08018000      -0.00711200       0.00081200      -0.01025500
O        7.11382000       9.21404000       2.48820000      -0.00261000       0.00077400       0.00068200
O        4.78342000       6.18366000       4.22978000       0.01846800      -0.01505700      -0.00921000
O        9.91770000       9.57198000       0.74675000      -0.01245100      -0.01059700      -0.00438000
O        9.46691000       8.77232000       3.39087000       0.00087500       0.01109200      -0.00055800
O        5.21313000       6.97504000       1.79590000       0.01405100       0.00170800      -0.00310100
O        5.78435000       3.91081000      10.50205000      -0.00210100       0.00007300       0.00597800
O        7.14822000       1.28761000       5.41061000       0.00876600       0.00592300      -0.00301500
O        7.58335000       6.51292000       2.67336000       0.00248100       0.00545400      -0.00296400
O       -0.82385000       6.95939000       7.15065000      -0.00351300      -0.00012300       0.00741500
O        5.81258000       9.13144000      10.44382000      -0.00510400      -0.00010000       0.00242500
O       -1.29536000       0.92785000       9.82275000      -0.00131600      -0.00666400      -0.00521100
O        1.42293000       3.90384000       5.16076000       0.00015400       0.00630100      -0.00182200
O        2.82589000       1.33867000       0.12484000      -0.00335500       0.00331400      -0.00622100
O        2.38454000       1.28185000       2.77214000      -0.00059700      -0.00899200      -0.00260000
O        1.93809000       3.97247000       2.52281000       0.00223100       0.00379400       0.00315000
O        0.62343000       3.88984000      10.48991000      -0.00901300       0.00006700      -0.00592500
O       -0.42279000       0.90856000       4.50922000      -0.00058600       0.00470800      -0.00045700
O        1.05583000       3.96462000       7.83934000      -0.00935700      -0.00113100       0.00685300
O        3.62382000       4.37774000       6.07970000      -0.01034700       0.00513300       0.00438600
O        0.01980000       6.95056000       1.83546000       0.00311900      -0.00638400      -0.00759300
O        4.28138000       8.81026000       3.43394000       0.00921100      -0.01473000      -0.00527500
O        1.93379000       1.35083000       5.43048000       0.00644100      -0.00067800      -0.00248600
O        4.72481000       9.56881000       0.78734000      -0.00078200       0.01039600       0.00672400
O        4.29527000       3.50753000       3.43990000      -0.00105000      -0.00119800       0.00667300
O        0.02305000       1.70480000       1.85755000       0.00880400      -0.00265300       0.00252300
O        3.40045000       3.50856000       8.78004000       0.00004500      -0.00929100       0.00599100
O       -0.39303000       6.14385000       4.49410000      -0.00865200      -0.00052900       0.00205300
O        1.90856000       9.22607000       2.51965000      -0.00139300      -0.00072200       0.00100000
O        2.36815000       6.54141000       2.75003000       0.00654200      -0.00813000       0.00293800
O        2.83718000       6.58910000       0.11278000      -0.00325700      -0.00252900      -0.00016900
O        1.47258000       9.15369000       5.16039000      -0.00720400       0.00459700       0.00607700
O       -0.86408000       1.70101000       7.16368000       0.00213900       0.00221700       0.00025500
O        4.71625000       4.33742000       0.79417000      -0.00009700       0.01525800       0.00443300
O        1.49920000       1.26187000       8.08588000       0.00146100       0.00515000      -0.00656700
Zr       0.34609000       0.20850000       6.42223000       0.01912900      -0.00331500      -0.01013700
Zr       2.18476000       5.01587000       9.48395000      -0.01673400       0.00037000       0.00113100
Zr       7.75350000       7.99854000       6.77878000       0.00224600      -0.00527000       0.00634600
Zr       2.62529000       2.82422000       6.85565000       0.00079400       0.00007400      -0.01040800
Zr       5.14764000       7.60064000       8.97023000      -0.00134900      -0.00430100      -0.00185400
Zr       0.80300000       2.40616000       3.76461000      -0.00003200       0.00177400      -0.00330800
Zr       3.50052000       2.84041000       1.53426000       0.01332300      -0.00108600      -0.00434500
Zr       3.12649000       5.03863000       4.19349000       0.00197900       0.00402200      -0.00547000
Zr       7.37404000      10.24414000       9.44249000       0.00741000       0.00495200       0.00173800
Zr       6.05081000       7.64880000       3.75190000      -0.00444300      -0.00598400       0.00459400
Zr       2.62455000       8.07395000       6.83409000       0.00443000       0.00564700       0.00076600
Zr       8.24138000      10.25425000       4.16421000       0.00917900       0.01778000       0.00017200
Zr       2.18904000      10.26593000       9.48823000      -0.00023800      -0.00129600      -0.00196200
Zr       0.39656000       5.46443000       6.41049000       0.00588300      -0.00002200      -0.00133300
Zr       6.45353000       0.22417000       1.06997000      -0.00151500       0.00258500      -0.00102400
Zr       8.18250000       5.03184000       4.19010000       0.00773000       0.00458200       0.00166600
Zr       8.68826000       2.86209000       1.50546000       0.00437000      -0.00332500       0.00497300
Zr       6.03065000       2.38945000       3.75947000      -0.00958100      -0.01471400      -0.00548500
Zr       0.80489000       7.64279000       3.76066000       0.00694300       0.00263600      -0.00683700
Zr       3.47276000       8.09404000       1.53516000       0.00594300      -0.01093700      -0.00935300
Zr       3.05617000      10.27517000       4.18365000      -0.01446400      -0.00995100       0.01121000
Zr       1.25439000       5.46282000       1.10537000       0.00174700       0.00261900       0.00709400
Zr       5.58419000       0.21768000       6.40393000      -0.01219100      -0.00470600      -0.00096200
Zr       7.35723000       5.02827000       9.42244000       0.00235900       0.01121400      -0.00085600
Zr       7.77239000       2.89443000       6.79251000      -0.00290700       0.00633400      -0.00102100
Zr       5.17253000       2.43125000       9.04401000      -0.00657900      -0.00449300      -0.00889000
Zr      -0.06035000       7.64446000       9.06105000       0.00455300       0.00851200       0.00033300
Zr      -0.06141000       2.39844000       9.06467000      -0.00044700       0.00348800       0.00373300
Zr       6.45873000       5.45463000       1.08142000      -0.02733200       0.00431700      -0.01098400
Zr       8.67665000       8.07800000       1.47488000       0.00789100       0.00788500       0.01110400
Zr       1.24671000       0.22510000       1.11117000      -0.00437500       0.00065000      -0.00712900
