95
Lattice="10.381444 0.0 -0.053824 0.0 10.490337 0.0 -1.746774 0.0 10.614441" Properties=species:S:1:pos:R:3:forces:R:3 energy=-895.84714456 stress="9.38743 -0.57303 -1.74214 -0.57303 4.64762 -0.86682 -1.74214 -0.86682 0.88035" pbc="T T T"
O        0.61138000       9.14119000      10.49251000      -0.01511200      -0.00168400       0.00685500
O        8.68796000       3.60007000       8.67960000       0.00467200      -0.00041500       0.01131100
O        4.35972000       1.73265000       7.13932000       0.00666700       0.00402900      -0.00770000
O        6.80581000       3.76891000       5.09238000       0.00254600       0.00468000       0.01349800
O        8.02494000       1.35684000       0.08325000      -0.00205200       0.00215400      -0.00006100
O        7.59013000       1.27212000       2.74010000      -0.00520400      -0.00304300       0.00716000
O        7.10566000       3.96626000       2.49269000       0.00149400      -0.01065900      -0.00019900
O        4.76645000       0.92804000       4.50244000       0.01183400      -0.01969300      -0.02137300
O        9.07619000       4.33385000       6.05730000      -0.01610200      -0.00313300       0.01353000
O        9.92907000       4.31000000       0.72224000      -0.01430300       0.00537500       0.01127000
O        5.22045000       1.69410000       1.81688000       0.01418800       0.00207100      -0.01942900
O        7.31673000       6.69061000       5.22914000       0.01215900      -0.02038800      -0.00399200
O        1.94846000       6.61005000       5.40280000       0.00575500      -0.00142100      -0.01132700
O        1.52711000       6.51788000       8.07175000       0.00207600      -0.00540900       0.00938400
O        1.04118000       9.21688000       7.83665000      -0.00848700       0.00067100      -0.00590200
O       -1.25340000       6.14971000       9.80989000       0.00391600       0.00197000      -0.00035300
O        3.81789000       9.61515000       6.10604000       0.00412300      -0.00246200       0.00433900
O        9.49254000       3.55543000       3.38489000      -0.00679200       0.01390000      -0.00235900
O        3.40299000       8.78257000       8.77060000       0.00571500       0.00963500       0.00581500
O        3.91527000       0.89205000       9.78282000       0.00997300       0.00428300      -0.00091100
O        6.71270000       1.23742000       8.04480000       0.00438900       0.00855300      -0.00280400
O        6.85488000       6.62572000       8.15319000      -0.00677100       0.00416500       0.00786900
O        6.23276000       9.20870000       7.79387000       0.00152400       0.00250700       0.01406200
O        3.90102000       6.15069000       9.78576000       0.00466900       0.00202100       0.00963900
O        9.02834000       9.54174000       6.05000000       0.01051800       0.00204500      -0.00214200
O        8.62660000       8.80280000       8.70367000       0.00146600      -0.00243900       0.00869900
O        4.35228000       7.09039000       7.12587000      -0.00478800       0.00709800       0.00178200
O        6.63035000       9.16721000       5.15749000      -0.01468100      -0.01500800       0.00405400
O        6.32570000       3.85719000       7.95102000      -0.00507900      -0.00743800       0.00433100
O        8.01638000       6.56831000       0.07998000      -0.00938800      -0.00292300      -0.00634200
O        7.11398000       9.21426000       2.48850000      -0.00448000      -0.00080900      -0.00242300
O        4.78542000       6.18084000       4.22673000       0.02063600      -0.01123300      -0.00860300
O        9.91797000       9.57179000       0.74687000      -0.01517500      -0.01173300      -0.00552400
O        9.46740000       8.77294000       3.39083000      -0.00216200       0.00939600      -0.00234600
O        5.21343000       6.97548000       1.79491000       0.01737400       0.00039900      -0.00372300
O        5.78451000       3.91064000      10.50222000      -0.00555200       0.00158600       0.00748600
O        7.14845000       1.28759000       5.41075000       0.00791000       0.00612400      -0.00284300
O        7.58359000       6.51328000       2.67334000       0.00262800       0.00292600      -0.00670500
O       -0.82386000       6.95901000       7.15084000      -0.00681100       0.00288500       0.00708100
O        5.81254000       9.13130000      10.44387000      -0.00479500       0.00144800       0.00435900
O       -1.29549000       0.92813000       9.82292000      -0.00489600      -0.01175700      -0.00099400
O        1.42311000       3.90387000       5.16097000      -0.00072600       0.00352700      -0.00600900
O        2.82580000       1.33896000       0.12486000      -0.00486200       0.00068000      -0.00263300
O        2.38453000       1.28179000       2.77235000      -0.00029800      -0.01118000      -0.00362300
O        1.93776000       3.97234000       2.52281000       0.00340900       0.00521700       0.00437800
O        0.62315000       3.89023000      10.48990000      -0.00774800      -0.00393800      -0.00587000
O       -0.42249000       0.90887000       4.50961000      -0.00536800       0.00191200       0.00200000
O        1.05557000       3.96468000       7.83960000      -0.00807200      -0.00277100       0.00343500
O        3.62097000       4.38029000       6.08071000      -0.00773600       0.00533700       0.00286900
O        0.01994000       6.95036000       1.83568000      -0.00228300      -0.00315800      -0.00888600
O        4.28069000       8.80883000       3.43450000       0.01228900      -0.01252700      -0.00460400
O        1.93418000       1.35074000       5.43087000       0.00526800       0.00023300      -0.00465100
O        4.72458000       9.56924000       0.78734000       0.00300400       0.00960800       0.01217500
O        4.29410000       3.50637000       3.44085000       0.00056100      -0.00258700       0.00503800
O        0.02251000       1.70426000       1.85807000       0.00934500      -0.00134400       0.00197500
O        3.40014000       3.50803000       8.78035000       0.00646200      -0.01381300       0.00707700
O       -0.39339000       6.14450000       4.49440000      -0.00948900      -0.00234500       0.00030200
O        1.90868000       9.22600000       2.51963000      -0.00241100       0.00119100       0.00127300
O        2.36813000       6.54143000       2.74986000       0.00816800      -0.00883300       0.00260600
O        2.83745000       6.58905000       0.11239000      -0.00515300       0.00182200       0.00405000
O        1.47255000       9.15374000       5.16039000      -0.00522600       0.00718200       0.00590400
O       -0.86439000       1.70063000       7.16428000       0.00236000       0.00247400      -0.00295200
O        4.71564000       4.33755000       0.79444000       0.01206500       0.02183200       0.00514700
O        1.49933000       1.26203000       8.08633000      -0.00002500       0.00530900      -0.01144100
Zr       0.34617000       0.20865000       6.42261000       0.01859900      -0.00900600      -0.01358500
Zr       2.18527000       5.01598000       9.48378000      -0.03228300      -0.00450800      -0.00016900
Zr       7.75325000       7.99866000       6.77853000       0.00756300      -0.00828800       0.01155700
Zr       2.62545000       2.82404000       6.85578000      -0.00250400       0.00173100      -0.00311700
Zr       5.14743000       7.60062000       8.97028000      -0.00062600      -0.00071300      -0.00779800
Zr       0.80342000       2.40595000       3.76475000      -0.00558300       0.00441800      -0.00213500
Zr       3.50054000       2.84033000       1.53429000       0.00758900       0.00287100      -0.00799200
Zr       3.12654000       5.03893000       4.19278000       0.00313500       0.00677200      -0.00494000
Zr       7.37399000      10.24395000       9.44269000       0.01100700       0.00547300       0.00031000
Zr       6.05114000       7.64894000       3.75150000      -0.01090500      -0.01066800       0.00770600
Zr       2.62452000       8.07372000       6.83382000       0.00331500       0.01114100       0.00459100
Zr       8.24106000      10.25427000       4.16440000       0.01856200       0.02212400      -0.00198000
Zr       2.18928000      10.26624000       9.48854000      -0.00536000      -0.00825300      -0.00781200
Zr       0.39679000       5.46442000       6.41014000       0.00600100       0.00017600       0.00599400
Zr       6.45345000       0.22443000       1.06992000      -0.00247400       0.00147300       0.00072200
Zr       8.18213000       5.03190000       4.18998000       0.01165100       0.00426200       0.00792400
Zr       8.68807000       2.86218000       1.50559000       0.01063600      -0.00558200       0.01053400
Zr       6.03016000       2.38942000       3.75970000      -0.00854700      -0.01544800      -0.00615300
Zr       0.80496000       7.64298000       3.76052000       0.00604900       0.00340900      -0.00281100
Zr       3.47271000       8.09418000       1.53528000       0.00549300      -0.01525300      -0.01732600
Zr       3.05662000      10.27508000       4.18351000      -0.01774900      -0.01389500       0.01828500
Zr       1.25432000       5.46281000       1.10535000       0.00818000      -0.00145500       0.00232600
Zr       5.58445000       0.21764000       6.40394000      -0.01657600      -0.00367900       0.00128700
Zr       7.35701000       5.02838000       9.42268000       0.00902000       0.01135900      -0.00654300
Zr       7.77243000       2.89433000       6.79277000      -0.00252700       0.01063200      -0.00472200
Zr       5.17297000       2.43117000       9.04421000      -0.01368100      -0.00393300      -0.01624300
Zr      -0.06027000       7.64444000       9.06100000       0.00700300       0.00770300      -0.00029000
Zr      -0.06184000       2.39824000       9.06480000       0.00728600       0.01315600       0.00799200
Zr       6.45903000       5.45435000       1.08139000      -0.03677400       0.00806400      -0.01239500
Zr       8.67670000       8.07781000       1.47496000       0.01093200       0.01252600       0.01226700
Zr       1.24666000       0.22509000       1.11181000      -0.00356700       0.00129100      -0.01751100
