95
Lattice="10.381444 0.0 -0.053824 0.0 10.490337 0.0 -1.746774 0.0 10.614441" Properties=species:S:1:pos:R:3:forces:R:3 energy=-895.84798926 stress="9.33153 -0.58877 -1.73729 -0.58877 4.65751 -0.88854 -1.73729 -0.88854 0.80312" pbc="T T T"
O        0.61097000       9.14153000      10.49294000      -0.00870200      -0.00498300       0.00257600
O        8.68779000       3.60014000       8.68025000       0.00221200       0.00107600       0.01068100
O        4.36112000       1.73426000       7.13753000      -0.00270600       0.00881700      -0.01075400
O        6.80546000       3.76869000       5.09265000      -0.00047900       0.00036100       0.00851200
O        8.02514000       1.35706000       0.08321000      -0.00160500      -0.00117700       0.00500300
O        7.58919000       1.27245000       2.74073000       0.00168500      -0.00318000       0.00161100
O        7.10540000       3.96635000       2.49316000       0.00021100      -0.00826700      -0.00399600
O        4.76820000       0.92502000       4.50102000      -0.00168400      -0.02533400      -0.01950800
O        9.07553000       4.33338000       6.05778000       0.00938200       0.01361100       0.01210300
O        9.92834000       4.30969000       0.72284000       0.00407400       0.01429500       0.00985500
O        5.22106000       1.69530000       1.81552000       0.00364800       0.01212800      -0.01371700
O        7.31736000       6.69000000       5.22894000       0.00775100      -0.01197200       0.00833000
O        1.94879000       6.61081000       5.40131000       0.00054900       0.00074200      -0.00723400
O        1.52751000       6.51765000       8.07155000       0.00102600      -0.00234300       0.00219700
O        1.04036000       9.21650000       7.83648000      -0.00140200       0.00343300      -0.00175200
O       -1.25293000       6.14909000       9.81038000       0.00951200       0.01230300      -0.00619000
O        3.81790000       9.61618000       6.10713000      -0.01169000      -0.00866900       0.00243400
O        9.49281000       3.55675000       3.38527000       0.00952900      -0.00002100      -0.00228700
O        3.40259000       8.78246000       8.77061000      -0.00409700       0.01156200       0.00611200
O        3.91598000       0.89152000       9.78245000       0.00035100       0.00083900      -0.00536500
O        6.71270000       1.23751000       8.04474000       0.00388500       0.00369500      -0.00189500
O        6.85494000       6.62621000       8.15394000      -0.00358600       0.00222200      -0.00208400
O        6.23285000       9.20910000       7.79482000       0.00153200      -0.00000800       0.00334200
O        3.90191000       6.14972000       9.78361000      -0.01435200      -0.00948900       0.01207000
O        9.02840000       9.54129000       6.04948000       0.02041000       0.00673200       0.00386200
O        8.62699000       8.80340000       8.70386000       0.00939200      -0.01373800       0.00377900
O        4.35338000       7.09225000       7.12389000      -0.00779000       0.00431600      -0.00228800
O        6.63035000       9.16613000       5.15739000      -0.01206800      -0.00407500       0.01292900
O        6.32562000       3.85701000       7.95122000      -0.00396100       0.00231100       0.00550400
O        8.01590000       6.56849000       0.07915000      -0.00549300      -0.00210500       0.00087600
O        7.11404000       9.21467000       2.48897000      -0.00321100       0.00178600      -0.00339900
O        4.79091000       6.17421000       4.21976000       0.00288500      -0.01898300      -0.00107600
O        9.91756000       9.57065000       0.74676000       0.00632900       0.00485600      -0.00532800
O        9.46827000       8.77483000       3.39059000       0.00973900       0.00069300      -0.00376800
O        5.21517000       6.97644000       1.79260000      -0.00232500       0.01570200      -0.00650800
O        5.78450000       3.91038000      10.50304000      -0.00614500      -0.00076900      -0.00425600
O        7.14945000       1.28793000       5.41086000      -0.00351800      -0.00304700       0.00010300
O        7.58427000       6.51424000       2.67289000       0.00196300      -0.00621700      -0.00305300
O       -0.82431000       6.95841000       7.15169000       0.00265400      -0.00151500       0.00298100
O        5.81214000       9.13112000      10.44424000      -0.00253400       0.00343500       0.00336300
O       -1.29609000       0.92798000       9.82322000       0.00550400      -0.00623200       0.00621200
O        1.42344000       3.90416000       5.16102000      -0.00774700      -0.00275100      -0.00622700
O        2.82530000       1.33961000       0.12472000      -0.00428000       0.00036300       0.00193400
O        2.38450000       1.28094000       2.77257000       0.00033400      -0.00768200      -0.00346000
O        1.93730000       3.97240000       2.52310000       0.00809200       0.00259600      -0.00225500
O        0.62206000       3.89080000      10.48951000       0.00344200      -0.00525600       0.00564500
O       -0.42221000       0.90966000       4.51055000       0.00180400       0.00567000       0.00088100
O        1.05452000       3.96464000       7.84038000      -0.00010200      -0.00206200      -0.00325500
O        3.61452000       4.38596000       6.08301000      -0.00078600       0.00621800       0.00371500
O        0.02007000       6.94974000       1.83557000       0.00426500       0.00040000       0.00072400
O        4.28004000       8.80504000       3.43539000      -0.00849700       0.00438800       0.00119600
O        1.93533000       1.35058000       5.43139000       0.00452500       0.00062200      -0.01055100
O        4.72429000       9.57076000       0.78814000      -0.01148800      -0.00136100       0.01079600
O        4.29169000       3.50378000       3.44318000      -0.00253600      -0.00999900      -0.00331800
O        0.02197000       1.70305000       1.85929000       0.01085900       0.00215200       0.00372500
O        3.39992000       3.50604000       8.78147000      -0.01433000       0.00238700       0.00295900
O       -0.39477000       6.14572000       4.49505000       0.01174700       0.00390400       0.00250400
O        1.90877000       9.22594000       2.51968000      -0.00024200      -0.00581700       0.00392900
O        2.36862000       6.54090000       2.74969000       0.00775800      -0.00210200      -0.00402700
O        2.83770000       6.58907000       0.11183000      -0.00110500       0.00253700       0.00538100
O        1.47216000       9.15430000       5.16077000      -0.00118300       0.00445900       0.00540500
O       -0.86490000       1.69997000       7.16535000       0.01276200      -0.00226400      -0.00782900
O        4.71513000       4.33921000       0.79532000      -0.01204300       0.00842700      -0.00114900
O        1.49960000       1.26269000       8.08654000       0.00122000      -0.00209000      -0.01357200
Zr       0.34753000       0.20840000       6.42254000      -0.01204000       0.00020900      -0.00226400
Zr       2.18428000       5.01592000       9.48341000      -0.01218200      -0.01041000      -0.00545200
Zr       7.75320000       7.99837000       6.77875000       0.00397200      -0.00039400       0.00818700
Zr       2.62561000       2.82377000       6.85584000      -0.00085400       0.00366000       0.01393700
Zr       5.14696000       7.60055000       8.96990000       0.01134100       0.00970300       0.00407100
Zr       0.80395000       2.40579000       3.76489000      -0.01088600       0.00776800      -0.00552500
Zr       3.50105000       2.84035000       1.53384000       0.00304500       0.00216600       0.00332200
Zr       3.12685000       5.03999000       4.19098000       0.01364200       0.00561800       0.00172300
Zr       7.37459000      10.24390000       9.44313000      -0.01496900       0.00460800      -0.00250400
Zr       6.05112000       7.64855000       3.75117000       0.00974000      -0.00158000       0.00087900
Zr       2.62466000       8.07394000       6.83353000       0.01126100       0.00543600       0.01366100
Zr       8.24156000      10.25575000       4.16469000      -0.00304900       0.00488300       0.00118500
Zr       2.18945000      10.26636000       9.48868000       0.00193400      -0.00513000      -0.00658600
Zr       0.39764000       5.46440000       6.40979000      -0.01024800       0.00056400       0.00659800
Zr       6.45312000       0.22505000       1.06987000       0.01890100      -0.01387800      -0.00092300
Zr       8.18210000       5.03228000       4.19024000      -0.01150400      -0.00498200      -0.00348100
Zr       8.68834000       2.86200000       1.50653000      -0.01316400       0.00837400      -0.00037600
Zr       6.02860000       2.38836000       3.75979000       0.01806200       0.00959800       0.00223600
Zr       0.80549000       7.64360000       3.76005000      -0.01125900      -0.00300700      -0.00277900
Zr       3.47296000       8.09351000       1.53444000       0.01638100       0.00036200      -0.00663200
Zr       3.05642000      10.27401000       4.18439000       0.00244800      -0.01288900      -0.00519800
Zr       1.25470000       5.46270000       1.10546000      -0.01083300      -0.00930700      -0.00240200
Zr       5.58395000       0.21732000       6.40405000       0.01354000      -0.00207400       0.00134900
Zr       7.35713000       5.02935000       9.42276000      -0.00522800      -0.00046100       0.00864700
Zr       7.77235000       2.89479000       6.79303000      -0.00794600      -0.00474500      -0.00979600
Zr       5.17304000       2.43076000       9.04360000       0.00018000       0.00311800       0.00342500
Zr      -0.05968000       7.64490000       9.06088000      -0.01094800       0.00178700      -0.00006700
Zr      -0.06226000       2.39867000       9.06557000       0.00255800       0.00414100      -0.00621300
Zr       6.45732000       5.45428000       1.08054000       0.01525400       0.00509100      -0.00078400
Zr       8.67752000       8.07822000       1.47589000      -0.02439600       0.00024200      -0.00362700
Zr       1.24633000       0.22514000       1.11205000      -0.00209700      -0.00399800      -0.01773500
