95
Lattice="10.381444 0.0 -0.053824 0.0 10.490337 0.0 -1.746774 0.0 10.614441" Properties=species:S:1:pos:R:3:forces:R:3 energy=-895.84868178 stress="9.23292 -0.62107 -1.74009 -0.62107 4.67218 -0.90727 -1.74009 -0.90727 0.69476" pbc="T T T"
O        0.61006000       9.14157000      10.49351000       0.00306000      -0.00111700      -0.00805100
O        8.68773000       3.60032000       8.68160000      -0.00833700       0.00109400       0.00373100
O        4.36241000       1.73669000       7.13487000       0.00778900       0.00503800      -0.00937100
O        6.80502000       3.76843000       5.09341000      -0.00116500      -0.00207000       0.00037300
O        8.02527000       1.35720000       0.08351000       0.00244800      -0.00430300       0.00464200
O        7.58834000       1.27262000       2.74147000       0.01086500      -0.00128500      -0.00436700
O        7.10512000       3.96598000       2.49344000      -0.00166700      -0.00177800       0.00100300
O        4.76986000       0.92014000       4.49831000       0.02114900      -0.00478100      -0.00900800
O        9.07565000       4.33385000       6.05902000       0.00110800       0.00767600       0.00166300
O        9.92794000       4.31028000       0.72412000      -0.00910700       0.00659200       0.00392000
O        5.22184000       1.69744000       1.81326000       0.02056500       0.00410700      -0.00646300
O        7.31847000       6.68869000       5.22934000       0.00097900       0.00492800       0.01002700
O        1.94913000       6.61173000       5.39927000      -0.00149900       0.00174500       0.00488600
O        1.52801000       6.51730000       8.07139000      -0.00094000      -0.00193000      -0.00389800
O        1.03944000       9.21630000       7.83622000       0.00544500       0.00649300       0.00842200
O       -1.25179000       6.14929000       9.81048000      -0.01272900      -0.00122300      -0.00614700
O        3.81704000       9.61671000       6.10843000       0.00562100       0.00165600       0.00588300
O        9.49387000       3.55807000       3.38556000      -0.00596400      -0.00036800      -0.00499200
O        3.40179000       8.78307000       8.77101000       0.00752200      -0.00011900       0.01013100
O        3.91667000       0.89091000       9.78167000       0.00286600      -0.00386400      -0.00617400
O        6.71295000       1.23778000       8.04457000       0.00212300      -0.00150400      -0.00067700
O        6.85482000       6.62686000       8.15452000      -0.00252800       0.00076500      -0.00410700
O        6.23307000       9.20951000       7.79596000       0.00195000      -0.00016400      -0.00042700
O        3.90178000       6.14798000       9.78200000      -0.00312200       0.00297500       0.00511700
O        9.02982000       9.54125000       6.04921000      -0.00423700      -0.00183000       0.00249600
O        8.62810000       8.80313000       8.70427000      -0.01724100       0.00352400       0.00024600
O        4.35406000       7.09457000       7.12156000       0.01146100      -0.00406300       0.01074400
O        6.62964000       9.16480000       5.15817000       0.00389700       0.00623000       0.01224900
O        6.32531000       3.85706000       7.95178000       0.00186400       0.00516600       0.00399000
O        8.01508000       6.56858000       0.07839000      -0.00077500       0.00433500       0.00686200
O        7.11393000       9.21525000       2.48927000       0.00017300      -0.00290600       0.00456900
O        4.79692000       6.16567000       4.21199000       0.01773000      -0.00121200      -0.00354700
O        9.91774000       9.56984000       0.74631000      -0.00715700       0.00008700      -0.00703000
O        9.46995000       8.77684000       3.39009000      -0.01372500       0.00632400      -0.00671900
O        5.21670000       6.97860000       1.78966000       0.01085100       0.01346200      -0.00372900
O        5.78410000       3.91002000      10.50355000      -0.00308900       0.00014800      -0.00471100
O        7.15020000       1.28803000       5.41104000      -0.01111000      -0.00885000       0.00047400
O        7.58511000       6.51483000       2.67224000      -0.00035100      -0.01212300       0.00046700
O       -0.82457000       6.95762000       7.15277000      -0.00121800       0.00085900      -0.00539200
O        5.81156000       9.13118000      10.44487000      -0.00192000       0.00475200       0.00503200
O       -1.29633000       0.92750000       9.82401000      -0.00184700      -0.00011700      -0.00290400
O        1.42323000       3.90425000       5.16068000      -0.00596100       0.00116200       0.00321000
O        2.82449000       1.34036000       0.12475000       0.00092700      -0.00020700      -0.00455100
O        2.38450000       1.27958000       2.77260000      -0.00068400      -0.00072900      -0.00549400
O        1.93734000       3.97260000       2.52320000       0.00793100      -0.00051800      -0.00614300
O        0.62121000       3.89109000      10.48955000       0.00626700      -0.00692100       0.00556100
O       -0.42170000       0.91091000       4.51164000      -0.01642100       0.00045800      -0.00460800
O        1.05346000       3.96446000       7.84096000       0.00214400      -0.00321300      -0.00700900
O        3.60746000       4.39250000       6.08574000       0.00268100       0.00577900       0.00574500
O        0.02051000       6.94911000       1.83559000      -0.01628000       0.01293400       0.00236700
O        4.27855000       8.80132000       3.43650000       0.00640600      -0.00331600       0.00834400
O        1.93683000       1.35045000       5.43124000      -0.00044200       0.00948200      -0.00468400
O        4.72312000       9.57222000       0.78962000       0.00478400       0.00871200       0.00004900
O        4.28884000       3.50026000       3.44541000       0.01432000      -0.02061700      -0.00191200
O        0.02209000       1.70183000       1.86089000      -0.01448600       0.01749400      -0.00402600
O        3.39860000       3.50408000       8.78289000      -0.01053000       0.00047800       0.00088500
O       -0.39538000       6.14735000       4.49591000       0.00095600      -0.00994700       0.00063800
O        1.90889000       9.22545000       2.51999000       0.00135500      -0.01018300      -0.00150000
O        2.36963000       6.54026000       2.74918000       0.00282900       0.00117200      -0.00605100
O        2.83794000       6.58925000       0.11155000       0.00052900      -0.00191500       0.00163900
O        1.47171000       9.15516000       5.16150000      -0.00083300      -0.00564000      -0.00013900
O       -0.86463000       1.69905000       7.16599000      -0.00468300       0.01328500      -0.00731900
O        4.71360000       4.34146000       0.79616000      -0.00919400       0.00416300       0.00105000
O        1.49998000       1.26320000       8.08592000       0.00432700      -0.00762600      -0.00450800
Zr       0.34802000       0.20823000       6.42244000       0.00424700       0.00476800       0.00073400
Zr       2.18265000       5.01517000       9.48260000      -0.00201100       0.00763500       0.00572200
Zr       7.75333000       7.99808000       6.77947000       0.01291100      -0.00517500       0.00063600
Zr       2.62580000       2.82378000       6.85688000      -0.01202700      -0.01129300       0.00243200
Zr       5.14724000       7.60116000       8.96978000      -0.01101200      -0.00802300       0.00096600
Zr       0.80383000       2.40614000       3.76470000       0.02178000      -0.00729700      -0.00686300
Zr       3.50176000       2.84050000       1.53366000      -0.01485600      -0.00867700       0.01070400
Zr       3.12816000       5.04147000       4.18925000      -0.00728900       0.00692200      -0.00081600
Zr       7.37407000      10.24413000       9.44343000       0.00489300      -0.00021700      -0.00160300
Zr       6.05188000       7.64810000       3.75080000      -0.00761300      -0.00750600       0.00602800
Zr       2.62565000       8.07443000       6.83415000      -0.02116700      -0.00687700       0.00188900
Zr       8.24170000      10.25750000       4.16510000       0.00889500      -0.01929500       0.01021000
Zr       2.18982000      10.26621000       9.48845000      -0.01533500       0.00782800       0.00123800
Zr       0.39783000       5.46440000       6.40980000       0.00424200       0.01131600      -0.00122200
Zr       6.45413000       0.22472000       1.06975000      -0.01080000      -0.00107800      -0.00240700
Zr       8.18112000       5.03230000       4.19020000       0.00251300       0.00066800       0.00585500
Zr       8.68758000       2.86244000       1.50743000       0.00557200       0.00524900      -0.00519200
Zr       6.02824000       2.38804000       3.76011000      -0.00664700       0.00845600      -0.00246800
Zr       0.80523000       7.64405000       3.75937000       0.01481400      -0.00035300      -0.00094500
Zr       3.47433000       8.09295000       1.53321000      -0.02041600       0.00583900       0.00763800
Zr       3.05657000      10.27205000       4.18482000      -0.01514200       0.00499800      -0.02761000
Zr       1.25429000       5.46192000       1.10540000       0.01033600       0.00481900       0.00475100
Zr       5.58453000       0.21686000       6.40424000      -0.00222400      -0.00054300      -0.00827300
Zr       7.35676000       5.03032000       9.42352000       0.00267300      -0.00902900      -0.00240400
Zr       7.77169000       2.89485000       6.79265000       0.00877500       0.00011900       0.01554900
Zr       5.17326000       2.43058000       9.04334000      -0.00443200       0.01240800       0.00640800
Zr      -0.05984000       7.64547000       9.06075000       0.00856600      -0.00275700       0.00826200
Zr      -0.06259000       2.39929000       9.06591000       0.00414100      -0.01068600      -0.00933000
Zr       6.45689000       5.45447000       1.07967000       0.00728600       0.00067500      -0.00099200
Zr       8.67656000       8.07856000       1.47655000       0.00146700      -0.00903400      -0.00864400
Zr       1.24587000       0.22490000       1.11124000       0.02218200      -0.01049700       0.00899000
