95
Lattice="10.381444 0.0 -0.053824 0.0 10.490337 0.0 -1.746774 0.0 10.614441" Properties=species:S:1:pos:R:3:forces:R:3 energy=-895.84921207 stress="9.06131 -0.6454 -1.76664 -0.6454 4.64436 -0.89184 -1.76664 -0.89184 0.58244" pbc="T T T"
O        0.60957000       9.14148000      10.49345000       0.00649300       0.00409000      -0.00164200
O        8.68723000       3.60051000       8.68280000       0.00046300      -0.00976500       0.00100600
O        4.36369000       1.73868000       7.13247000       0.00249700       0.01131400      -0.00231000
O        6.80465000       3.76814000       5.09400000       0.00589900       0.00021500       0.00272500
O        8.02549000       1.35703000       0.08402000       0.00215000       0.00179500      -0.00394500
O        7.58840000       1.27265000       2.74172000       0.01213700      -0.00154200      -0.00335900
O        7.10483000       3.96558000       2.49365000      -0.00286800       0.00674200       0.00015100
O        4.77214000       0.91640000       4.49584000       0.00660800      -0.00434700      -0.01148100
O        9.07589000       4.33473000       6.06003000      -0.00752400      -0.00089900      -0.00179300
O        9.92722000       4.31116000       0.72528000      -0.00348200       0.01172100      -0.00263300
O        5.22353000       1.69921000       1.81128000       0.00725700       0.00764400      -0.00441000
O        7.31933000       6.68802000       5.23026000      -0.00329700       0.01125200       0.00156500
O        1.94927000       6.61245000       5.39814000       0.00463900       0.00376900       0.00266400
O        1.52831000       6.51694000       8.07107000      -0.00456100       0.00568200      -0.00477200
O        1.03913000       9.21657000       7.83652000       0.00590700       0.00354600       0.01155600
O       -1.25166000       6.14945000       9.81014000      -0.01076400      -0.00462800       0.00204900
O        3.81668000       9.61708000       6.10965000      -0.00366600       0.00180400      -0.00176400
O        9.49434000       3.55892000       3.38546000      -0.00168900      -0.00197500       0.00130900
O        3.40164000       8.78357000       8.77191000       0.00056200      -0.00534500       0.00662800
O        3.91730000       0.89028000       9.78075000      -0.00204600      -0.00427100      -0.01084900
O        6.71326000       1.23789000       8.04440000      -0.00068000       0.00328200       0.00297100
O        6.85457000       6.62735000       8.15466000      -0.00002600      -0.00785700       0.00234500
O        6.23334000       9.20978000       7.79672000       0.00006800      -0.00158500      -0.00040100
O        3.90138000       6.14690000       9.78130000       0.00379000       0.00990400      -0.00105000
O        9.03070000       9.54118000       6.04921000      -0.00578600      -0.00398500       0.00591500
O        8.62795000       8.80303000       8.70459000      -0.00828800      -0.00001100      -0.00071800
O        4.35510000       7.09593000       7.12059000       0.00301900      -0.00223100       0.01019100
O        6.62929000       9.16424000       5.15949000       0.01280800      -0.00136200       0.00367000
O        6.32518000       3.85741000       7.95242000       0.00158200       0.00475100       0.00102700
O        8.01445000       6.56886000       0.07828000       0.00191000       0.00178800       0.00231000
O        7.11384000       9.21550000       2.48971000      -0.00071700      -0.01137700       0.00767800
O        4.80196000       6.15970000       4.20656000       0.00118500      -0.00755900      -0.00457300
O        9.91754000       9.56936000       0.74556000       0.00382000       0.00338900       0.00057200
O        9.47039000       8.77854000       3.38935000      -0.00124900      -0.00961000      -0.00343700
O        5.21830000       6.98096000       1.78742000       0.00909000       0.01196000      -0.00234800
O        5.78361000       3.90979000      10.50357000      -0.00248400       0.00436300      -0.00237200
O        7.15003000       1.28755000       5.41119000      -0.00503600       0.00107500       0.00548400
O        7.58567000       6.51449000       2.67180000      -0.00207100      -0.01122700       0.00646400
O       -0.82479000       6.95712000       7.15321000       0.00750300       0.00487800      -0.00183900
O        5.81104000       9.13152000      10.44560000      -0.00102300      -0.00071100      -0.00068800
O       -1.29654000       0.92713000       9.82443000       0.00852200       0.00635500      -0.00521700
O        1.42269000       3.90434000       5.16059000       0.00197800       0.00369300       0.00269600
O        2.82397000       1.34085000       0.12454000       0.00323800      -0.00773900      -0.00688300
O        2.38447000       1.27858000       2.77228000       0.00115300      -0.00165000      -0.01134700
O        1.93789000       3.97271000       2.52290000       0.00436100      -0.00074300       0.00145900
O        0.62103000       3.89086000      10.48994000      -0.00152200      -0.00666000       0.00210800
O       -0.42227000       0.91183000       4.51211000      -0.00187100       0.00528200      -0.00224600
O        1.05287000       3.96413000       7.84093000      -0.00307900      -0.00323500      -0.00292300
O        3.60288000       4.39726000       6.08793000      -0.00851000      -0.00061700       0.00037900
O        0.01993000       6.94943000       1.83575000      -0.00118400       0.00406900       0.00284400
O        4.27782000       8.79869000       3.43775000      -0.00165300      -0.00283600       0.00784100
O        1.93785000       1.35090000       5.43079000      -0.00460400       0.00357600      -0.00857600
O        4.72249000       9.57367000       0.79070000      -0.00774500       0.00479100      -0.00453700
O        4.28772000       3.49664000       3.44676000      -0.00721600      -0.00233000       0.00600600
O        0.02143000       1.70202000       1.86177000       0.00405300       0.00380400      -0.01321500
O        3.39698000       3.50282000       8.78392000      -0.00246100      -0.00283000      -0.00022900
O       -0.39562000       6.14792000       4.49654000       0.00487200      -0.00473000      -0.00630500
O        1.90905000       9.22450000       2.52015000      -0.00089700      -0.00445700      -0.00388000
O        2.37052000       6.53990000       2.74846000      -0.00378100       0.00403100      -0.00295700
O        2.83813000       6.58928000       0.11150000      -0.00358300       0.00071200      -0.00091800
O        1.47136000       9.15545000       5.16203000       0.00087500      -0.00594600      -0.00716800
O       -0.86460000       1.69916000       7.16594000      -0.00218000       0.01383200      -0.00244100
O        4.71194000       4.34325000       0.79676000      -0.00512500      -0.00073200       0.00950300
O        1.50049000       1.26308000       8.08514000       0.00135600      -0.00480700      -0.00028600
Zr       0.34847000       0.20840000       6.42241000      -0.00154500       0.00636400      -0.00808100
Zr       2.18137000       5.01500000       9.48233000       0.01227000       0.00508600       0.01569800
Zr       7.75417000       7.99760000       6.78004000      -0.00261900       0.00311000      -0.00029500
Zr       2.62524000       2.82319000       6.85784000       0.00183300      -0.00248400      -0.01107700
Zr       5.14691000       7.60120000       8.96980000      -0.01230700      -0.00445800       0.00026600
Zr       0.80490000       2.40603000       3.76414000      -0.00348700      -0.00483300       0.00082100
Zr       3.50141000       2.84012000       1.53419000       0.00984500      -0.00173700      -0.00277200
Zr       3.12874000       5.04289000       4.18807000       0.00939800      -0.00650200       0.00937700
Zr       7.37385000      10.24430000       9.44352000      -0.00022400      -0.00077700       0.00138100
Zr       6.05205000       7.64737000       3.75089000      -0.00182500       0.00456400       0.00640600
Zr       2.62522000       8.07441000       6.83479000      -0.00510400      -0.00198800      -0.00184900
Zr       8.24225000      10.25760000       4.16597000      -0.00869200      -0.01357000      -0.00148000
Zr       2.18923000      10.26652000       9.48832000       0.00611200       0.00769500       0.00598300
Zr       0.39810000       5.46505000       6.40979000       0.00232300       0.00121500      -0.00749300
Zr       6.45437000       0.22432000       1.06952000      -0.00261700       0.00748500       0.00672100
Zr       8.18048000       5.03231000       4.19046000       0.00906800      -0.00186100       0.01001000
Zr       8.68726000       2.86311000       1.50772000       0.00313000      -0.01401600       0.00251700
Zr       6.02779000       2.38841000       3.76021000       0.00647600      -0.01212700      -0.00686600
Zr       0.80578000       7.64430000       3.75884000      -0.00868800      -0.00320100       0.00326900
Zr       3.47422000       8.09293000       1.53279000       0.00157200      -0.00111800       0.00860600
Zr       3.05585000      10.27092000       4.18347000       0.01453800       0.00896800       0.00249500
Zr       1.25449000       5.46159000       1.10560000      -0.00052100       0.01307200      -0.00338500
Zr       5.58493000       0.21651000       6.40392000      -0.00446700      -0.00356700      -0.00645400
Zr       7.35661000       5.03044000       9.42397000       0.00402100      -0.00256700      -0.01007200
Zr       7.77168000       2.89484000       6.79320000       0.00549200       0.00129700       0.01182600
Zr       5.17318000       2.43119000       9.04357000      -0.00457100       0.00079700       0.00100700
Zr      -0.05957000       7.64570000       9.06113000      -0.00418600      -0.00859200       0.00188800
Zr      -0.06255000       2.39913000       9.06555000      -0.01076500      -0.00451300      -0.00364100
Zr       6.45719000       5.45467000       1.07904000      -0.01151200      -0.00547800       0.00741400
Zr       8.67577000       8.07827000       1.47645000       0.00566000       0.00503500      -0.00278400
Zr       1.24680000       0.22411000       1.11107000      -0.01573400       0.00319100       0.00495300
