95
Lattice="10.381444 0.0 -0.053824 0.0 10.490337 0.0 -1.746774 0.0 10.614441" Properties=species:S:1:pos:R:3:forces:R:3 energy=-895.84922368 stress="9.03624 -0.65134 -1.76687 -0.65134 4.63576 -0.88598 -1.76687 -0.88598 0.5598" pbc="T T T"
O        0.60948000       9.14147000      10.49344000       0.00713000       0.00489400      -0.00062200
O        8.68715000       3.60054000       8.68300000       0.00219800      -0.01145600       0.00032300
O        4.36390000       1.73901000       7.13207000       0.00177600       0.01211100      -0.00080200
O        6.80459000       3.76809000       5.09410000       0.00705600       0.00053100       0.00288800
O        8.02553000       1.35701000       0.08410000       0.00224800       0.00278400      -0.00501300
O        7.58841000       1.27265000       2.74176000       0.01232900      -0.00158900      -0.00320100
O        7.10478000       3.96551000       2.49368000      -0.00316100       0.00825600       0.00040000
O        4.77252000       0.91578000       4.49543000       0.00410300      -0.00344000      -0.01155700
O        9.07594000       4.33488000       6.06020000      -0.00912000      -0.00260900      -0.00171300
O        9.92710000       4.31131000       0.72548000      -0.00247200       0.01237800      -0.00393500
O        5.22381000       1.69950000       1.81095000       0.00468200       0.00828100      -0.00373300
O        7.31947000       6.68790000       5.23041000      -0.00352700       0.01211700       0.00065100
O        1.94930000       6.61257000       5.39795000       0.00540700       0.00391600       0.00269400
O        1.52835000       6.51688000       8.07102000      -0.00505500       0.00674800      -0.00556200
O        1.03907000       9.21661000       7.83656000       0.00603000       0.00301100       0.01201900
O       -1.25164000       6.14948000       9.81008000      -0.01042800      -0.00519300       0.00338200
O        3.81662000       9.61714000       6.10986000      -0.00534300       0.00163300      -0.00291600
O        9.49442000       3.55906000       3.38544000      -0.00066100      -0.00163000       0.00226400
O        3.40162000       8.78365000       8.77205000      -0.00043600      -0.00630700       0.00601200
O        3.91740000       0.89017000       9.78060000      -0.00261900      -0.00539500      -0.01172700
O        6.71331000       1.23791000       8.04437000      -0.00109600       0.00415900       0.00327300
O        6.85453000       6.62744000       8.15468000       0.00009400      -0.00914600       0.00324700
O        6.23338000       9.20982000       7.79684000       0.00010800      -0.00171300      -0.00053500
O        3.90132000       6.14672000       9.78118000       0.00487400       0.01047700      -0.00183000
O        9.03084000       9.54116000       6.04921000      -0.00608400      -0.00440100       0.00654600
O        8.62793000       8.80301000       8.70464000      -0.00675400      -0.00052500      -0.00089400
O        4.35527000       7.09616000       7.12042000       0.00184100      -0.00215800       0.00986700
O        6.62924000       9.16415000       5.15971000       0.01342800      -0.00252000       0.00286900
O        6.32516000       3.85747000       7.95253000       0.00157200       0.00460400       0.00044100
O        8.01434000       6.56891000       0.07826000       0.00246900       0.00132200       0.00160400
O        7.11383000       9.21554000       2.48978000      -0.00086800      -0.01280200       0.00818200
O        4.80280000       6.15871000       4.20566000      -0.00143200      -0.00858300      -0.00452800
O        9.91750000       9.56928000       0.74544000       0.00576000       0.00395100       0.00188000
O        9.47046000       8.77883000       3.38923000       0.00108300      -0.01159700      -0.00322900
O        5.21856000       6.98135000       1.78705000       0.00840200       0.01128500      -0.00189200
O        5.78353000       3.90975000      10.50357000      -0.00233500       0.00497700      -0.00230300
O        7.15001000       1.28747000       5.41122000      -0.00405700       0.00269900       0.00628600
O        7.58576000       6.51443000       2.67173000      -0.00243900      -0.01101800       0.00742500
O       -0.82482000       6.95703000       7.15328000       0.00876800       0.00527300      -0.00141000
O        5.81096000       9.13157000      10.44572000      -0.00124300      -0.00185400      -0.00146900
O       -1.29657000       0.92707000       9.82450000       0.01022600       0.00743700      -0.00570000
O        1.42260000       3.90435000       5.16057000       0.00304000       0.00408700       0.00241100
O        2.82389000       1.34093000       0.12450000       0.00347100      -0.00902700      -0.00686500
O        2.38446000       1.27842000       2.77222000       0.00143300      -0.00169000      -0.01227400
O        1.93798000       3.97273000       2.52284000       0.00374300      -0.00079900       0.00280600
O        0.62100000       3.89082000      10.49001000      -0.00280600      -0.00660600       0.00147600
O       -0.42236000       0.91199000       4.51219000       0.00062600       0.00590600      -0.00199000
O        1.05278000       3.96408000       7.84092000      -0.00371800      -0.00307500      -0.00223200
O        3.60212000       4.39806000       6.08829000      -0.00993200      -0.00076200      -0.00172000
O        0.01983000       6.94948000       1.83578000       0.00062300       0.00281500       0.00297100
O        4.27769000       8.79825000       3.43795000      -0.00291200      -0.00211900       0.00744200
O        1.93802000       1.35098000       5.43072000      -0.00548200       0.00246800      -0.00905900
O        4.72239000       9.57391000       0.79088000      -0.01029100       0.00397800      -0.00547600
O        4.28753000       3.49604000       3.44698000      -0.01041400       0.00088800       0.00704600
O        0.02132000       1.70205000       1.86191000       0.00737600       0.00131900      -0.01496500
O        3.39671000       3.50261000       8.78409000      -0.00228400      -0.00378400      -0.00033300
O       -0.39566000       6.14802000       4.49664000       0.00559900      -0.00393200      -0.00759200
O        1.90907000       9.22434000       2.52018000      -0.00119700      -0.00321300      -0.00436600
O        2.37067000       6.53984000       2.74834000      -0.00433600       0.00447100      -0.00206300
O        2.83816000       6.58929000       0.11150000      -0.00423700       0.00114300      -0.00132800
O        1.47130000       9.15550000       5.16211000       0.00121100      -0.00605300      -0.00836900
O       -0.86460000       1.69918000       7.16593000      -0.00177000       0.01390300      -0.00166800
O        4.71166000       4.34355000       0.79686000      -0.00431900      -0.00105200       0.01140000
O        1.50057000       1.26306000       8.08501000       0.00086100      -0.00447100       0.00054800
Zr       0.34854000       0.20843000       6.42241000      -0.00222100       0.00672400      -0.00958500
Zr       2.18116000       5.01498000       9.48228000       0.01435000       0.00444200       0.01711700
Zr       7.75431000       7.99752000       6.78014000      -0.00528900       0.00419000      -0.00046800
Zr       2.62515000       2.82309000       6.85800000       0.00437400      -0.00040600      -0.01366900
Zr       5.14685000       7.60121000       8.96980000      -0.01212300      -0.00383900       0.00037100
Zr       0.80507000       2.40601000       3.76405000      -0.00732100      -0.00435400       0.00219100
Zr       3.50135000       2.84006000       1.53427000       0.01409000      -0.00045600      -0.00492100
Zr       3.12884000       5.04313000       4.18787000       0.01240000      -0.00912800       0.01143600
Zr       7.37382000      10.24433000       9.44353000      -0.00121600      -0.00087000       0.00181700
Zr       6.05208000       7.64724000       3.75091000      -0.00074400       0.00657100       0.00661700
Zr       2.62515000       8.07440000       6.83489000      -0.00300200      -0.00123600      -0.00256000
Zr       8.24234000      10.25761000       4.16611000      -0.01161700      -0.01258600      -0.00337700
Zr       2.18913000      10.26658000       9.48830000       0.00947300       0.00786600       0.00669700
Zr       0.39814000       5.46516000       6.40979000       0.00238800      -0.00047900      -0.00870000
Zr       6.45441000       0.22426000       1.06948000      -0.00124400       0.00885800       0.00822900
Zr       8.18037000       5.03231000       4.19050000       0.01001400      -0.00212900       0.01074200
Zr       8.68720000       2.86322000       1.50777000       0.00264700      -0.01716000       0.00384000
Zr       6.02772000       2.38847000       3.76023000       0.00841200      -0.01538000      -0.00748300
Zr       0.80588000       7.64434000       3.75875000      -0.01249900      -0.00378700       0.00394400
Zr       3.47421000       8.09293000       1.53272000       0.00495900      -0.00223200       0.00870200
Zr       3.05573000      10.27073000       4.18325000       0.01955000       0.00961400       0.00734900
Zr       1.25452000       5.46154000       1.10563000      -0.00221600       0.01433900      -0.00467000
Zr       5.58500000       0.21645000       6.40386000      -0.00477300      -0.00399900      -0.00620500
Zr       7.35659000       5.03046000       9.42405000       0.00401800      -0.00132700      -0.01151500
Zr       7.77168000       2.89484000       6.79329000       0.00463900       0.00151500       0.01140000
Zr       5.17317000       2.43129000       9.04361000      -0.00450300      -0.00093700      -0.00017400
Zr      -0.05953000       7.64574000       9.06120000      -0.00618100      -0.00949500       0.00087800
Zr      -0.06254000       2.39910000       9.06549000      -0.01306000      -0.00344800      -0.00271500
Zr       6.45724000       5.45471000       1.07893000      -0.01437100      -0.00677700       0.00880800
Zr       8.67564000       8.07822000       1.47644000       0.00616800       0.00730300      -0.00186000
Zr       1.24696000       0.22398000       1.11104000      -0.02183500       0.00530100       0.00428000
