95
Lattice="10.381444 0.0 -0.053824 0.0 10.490337 0.0 -1.746774 0.0 10.614441" Properties=species:S:1:pos:R:3:forces:R:3 energy=-895.84967969 stress="9.01229 -0.64069 -1.75065 -0.64069 4.68068 -0.8977 -1.75065 -0.8977 0.4908" pbc="T T T"
O        0.60954000       9.14170000      10.49336000       0.00256000      -0.00263600       0.00305600
O        8.68691000       3.60001000       8.68390000      -0.00137200      -0.00772200      -0.00109600
O        4.36495000       1.74119000       7.13026000       0.00416000       0.00544000      -0.00258700
O        6.80473000       3.76790000       5.09470000       0.00475800      -0.00707500      -0.00312000
O        8.02582000       1.35705000       0.08418000      -0.00221500       0.00231800      -0.00434600
O        7.58918000       1.27257000       2.74177000       0.00927700      -0.00789600      -0.00245600
O        7.10438000       3.96569000       2.49386000      -0.00154700      -0.00194200       0.00229700
O        4.77445000       0.91282000       4.49293000      -0.00137400      -0.00384200      -0.00870100
O        9.07558000       4.33538000       6.06085000      -0.00243800      -0.00026900      -0.00061500
O        9.92642000       4.31269000       0.72610000      -0.00593100       0.00279400      -0.00252900
O        5.22533000       1.70129000       1.80928000       0.00531000       0.00433600      -0.00005200
O        7.31990000       6.68811000       5.23112000      -0.00431400       0.00899100      -0.00341500
O        1.94972000       6.61333000       5.39727000       0.00561100       0.00129400       0.00328700
O        1.52827000       6.51701000       8.07046000      -0.00199800       0.00329500       0.00086800
O        1.03920000       9.21699000       7.83748000       0.00394900       0.00095400      -0.00100100
O       -1.25216000       6.14930000       9.81003000      -0.00137200       0.00020900       0.00355300
O        3.81604000       9.61751000       6.11059000      -0.00449100       0.00597600      -0.00508300
O        9.49472000       3.55959000       3.38550000       0.00168000      -0.00694600       0.00346000
O        3.40148000       8.78365000       8.77306000      -0.00082100      -0.01224800      -0.00025100
O        3.91770000       0.88939000       9.77923000       0.01026900       0.00064400      -0.00257100
O        6.71347000       1.23824000       8.04444000      -0.00431800       0.00305700       0.00556100
O        6.85435000       6.62727000       8.15496000       0.00228000      -0.00765300      -0.00034100
O        6.23359000       9.20991000       7.79737000      -0.00319400       0.00220300      -0.00487700
O        3.90131000       6.14653000       9.78056000      -0.00057300       0.00204200       0.00141400
O        9.03113000       9.54085000       6.04959000      -0.00150400       0.00231000       0.00119000
O        8.62742000       8.80290000       8.70482000      -0.00008700      -0.00447100       0.00101400
O        4.35615000       7.09703000       7.12028000      -0.00878700      -0.00205100       0.00177500
O        6.62977000       9.16359000       5.16085000       0.00907600      -0.00056200      -0.00473800
O        6.32515000       3.85799000       7.95303000      -0.00126600       0.00341100      -0.00275800
O        8.01402000       6.56920000       0.07828000       0.00186900       0.00020900       0.00161400
O        7.11371000       9.21497000       2.49057000      -0.00399500      -0.00366200       0.00735000
O        4.80643000       6.15381000       4.20139000      -0.00045800      -0.00150600      -0.00285400
O        9.91769000       9.56915000       0.74500000       0.00168200       0.00216000       0.00345900
O        9.47084000       8.77940000       3.38849000      -0.00249800      -0.00658800       0.00302600
O        5.22023000       6.98374000       1.78529000       0.00582700       0.00980700       0.00008500
O        5.78303000       3.90986000      10.50346000      -0.00220500       0.00196600       0.00096800
O        7.14965000       1.28728000       5.41170000       0.00075200       0.00226200      -0.00015300
O        7.58603000       6.51353000       2.67185000      -0.00381100      -0.00006000       0.01016600
O       -0.82447000       6.95697000       7.15352000       0.00578200       0.00774000      -0.00146500
O        5.81051000       9.13171000      10.44617000       0.00123100       0.00274700       0.00038600
O       -1.29613000       0.92723000       9.82448000      -0.00328500      -0.00341100      -0.00420700
O        1.42238000       3.90466000       5.16064000       0.00391500      -0.00022900      -0.00120200
O        2.82371000       1.34077000       0.12394000       0.00632700      -0.00709800      -0.00094200
O        2.38452000       1.27758000       2.77127000       0.00075100      -0.00197000      -0.00633300
O        1.93861000       3.97277000       2.52278000      -0.00070600       0.00140600       0.00464600
O        0.62071000       3.89026000      10.49039000      -0.00248400      -0.00067900      -0.00249000
O       -0.42274000       0.91301000       4.51242000      -0.00236400      -0.00270900      -0.00163500
O        1.05213000       3.96366000       7.84076000      -0.00127700       0.00420300      -0.00145900
O        3.59816000       4.40152000       6.08980000      -0.00487600       0.00043400       0.00208000
O        0.01944000       6.94988000       1.83608000       0.00498000      -0.00036600      -0.00067300
O        4.27698000       8.79619000       3.43931000       0.00088600      -0.00298700       0.00581900
O        1.93845000       1.35146000       5.42986000      -0.00525400      -0.00169900      -0.00809200
O        4.72133000       9.57521000       0.79135000       0.00067700       0.00712700       0.00207200
O        4.28609000       3.49342000       3.44839000      -0.00540900      -0.00238400       0.00878800
O        0.02127000       1.70226000       1.86169000       0.00725300       0.00148900      -0.01088100
O        3.39538000       3.50146000       8.78483000       0.00305100      -0.00178800       0.00144000
O       -0.39551000       6.14821000       4.49667000       0.00371700      -0.00584900      -0.00525700
O        1.90912000       9.22344000       2.52004000      -0.00171400       0.00616400      -0.00277500
O        2.37107000       6.53983000       2.74768000      -0.00732700       0.00333900       0.00308500
O        2.83806000       6.58938000       0.11138000      -0.00363400       0.00189400      -0.00567500
O        1.47111000       9.15535000       5.16201000       0.00091200       0.00237900      -0.00414500
O       -0.86469000       1.70008000       7.16579000       0.00473500       0.00263700      -0.00487700
O        4.71018000       4.34480000       0.79797000       0.00534800       0.00418200       0.00935100
O        1.50100000       1.26272000       8.08446000      -0.00330500       0.00145600      -0.00703300
Zr       0.34874000       0.20894000       6.42183000      -0.00124300      -0.00191500      -0.00078100
Zr       2.18106000       5.01511000       9.48308000       0.00436800      -0.00520900       0.00172100
Zr       7.75461000       7.99741000       6.78053000      -0.00876600       0.00646300       0.00618700
Zr       2.62499000       2.82263000       6.85790000      -0.00239400       0.00295700      -0.00312000
Zr       5.14590000       7.60101000       8.96983000      -0.00097600       0.00440700       0.00552900
Zr       0.80543000       2.40568000       3.76377000      -0.00631200       0.00720100      -0.00102900
Zr       3.50192000       2.83976000       1.53437000      -0.00562600       0.00028100      -0.01087100
Zr       3.13000000       5.04365000       4.18767000       0.00655200      -0.00914400      -0.00280800
Zr       7.37359000      10.24440000       9.44370000      -0.00381300      -0.00004800      -0.00274400
Zr       6.05217000       7.64709000       3.75136000       0.00212100      -0.00446000      -0.00092200
Zr       2.62465000       8.07431000       6.83521000       0.00125500       0.00353300       0.00117100
Zr       8.24206000      10.25695000       4.16655000      -0.00420700      -0.00513200      -0.00129500
Zr       2.18925000      10.26727000       9.48859000      -0.00274500       0.00021400       0.00331000
Zr       0.39849000       5.46560000       6.40927000       0.00643000      -0.01058300       0.00055200
Zr       6.45451000       0.22448000       1.06980000      -0.00231000      -0.00136100      -0.00309100
Zr       8.18049000       5.03219000       4.19132000       0.00031800      -0.00244500       0.00096300
Zr       8.68712000       2.86272000       1.50821000       0.00277400       0.00356500      -0.00216200
Zr       6.02788000       2.38785000       3.75987000       0.01275900       0.00211200       0.00444200
Zr       0.80556000       7.64431000       3.75859000      -0.00288900      -0.00095400       0.00024800
Zr       3.47442000       8.09279000       1.53291000       0.00193000       0.00073800       0.00224600
Zr       3.05635000      10.27046000       4.18269000       0.00951500       0.00064600       0.01092000
Zr       1.25454000       5.46213000       1.10551000      -0.00506000      -0.00057800       0.00194300
Zr       5.58502000       0.21596000       6.40326000      -0.00484300       0.00155900       0.01003000
Zr       7.35671000       5.03048000       9.42371000      -0.00493300       0.00017600       0.00463500
Zr       7.77194000       2.89492000       6.79435000      -0.00795000      -0.00103700      -0.00243400
Zr       5.17285000       2.43168000       9.04377000      -0.00284400      -0.00304800      -0.00489600
Zr      -0.05969000       7.64536000       9.06153000      -0.00297300       0.00325700      -0.00216200
Zr      -0.06328000       2.39877000       9.06507000       0.00844000       0.00419700       0.00612000
Zr       6.45662000       5.45446000       1.07898000      -0.00020500      -0.00071500       0.01485000
Zr       8.67542000       8.07843000       1.47626000       0.00147800      -0.00257900      -0.00108300
Zr       1.24637000       0.22371000       1.11116000      -0.00426800       0.00332700      -0.00459200
