95
Lattice="10.381444 0.0 -0.053824 0.0 10.490337 0.0 -1.746774 0.0 10.614441" Properties=species:S:1:pos:R:3:forces:R:3 energy=-895.84971042 stress="9.01381 -0.63835 -1.74505 -0.63835 4.68999 -0.89363 -1.74505 -0.89363 0.46263" pbc="T T T"
O        0.60955000       9.14176000      10.49334000       0.00081400      -0.00479300       0.00384000
O        8.68684000       3.59986000       8.68416000      -0.00261200      -0.00648100      -0.00126800
O        4.36526000       1.74183000       7.12972000       0.00511100       0.00386400      -0.00285500
O        6.80477000       3.76785000       5.09488000       0.00401700      -0.00927200      -0.00486300
O        8.02591000       1.35706000       0.08421000      -0.00365300       0.00212500      -0.00409700
O        7.58940000       1.27255000       2.74177000       0.00807200      -0.00942200      -0.00214900
O        7.10426000       3.96575000       2.49391000      -0.00086300      -0.00498000       0.00262900
O        4.77501000       0.91195000       4.49219000      -0.00250700      -0.00393000      -0.00764100
O        9.07548000       4.33552000       6.06104000      -0.00011400       0.00019300       0.00006000
O        9.92621000       4.31309000       0.72629000      -0.00683600      -0.00031900      -0.00223200
O        5.22578000       1.70182000       1.80878000       0.00560500       0.00250600       0.00144300
O        7.32002000       6.68817000       5.23133000      -0.00483000       0.00852400      -0.00488800
O        1.94984000       6.61356000       5.39707000       0.00550000       0.00093900       0.00356000
O        1.52825000       6.51704000       8.07029000      -0.00119400       0.00228000       0.00296900
O        1.03923000       9.21710000       7.83776000       0.00317700       0.00060100      -0.00441800
O       -1.25231000       6.14924000       9.81002000       0.00128100       0.00176200       0.00356400
O        3.81587000       9.61762000       6.11080000      -0.00354700       0.00764700      -0.00562700
O        9.49481000       3.55975000       3.38552000       0.00229000      -0.00861000       0.00376700
O        3.40144000       8.78365000       8.77336000      -0.00074000      -0.01402000      -0.00200000
O        3.91780000       0.88916000       9.77883000       0.01426100       0.00249200      -0.00012700
O        6.71352000       1.23833000       8.04446000      -0.00549100       0.00244400       0.00601800
O        6.85430000       6.62722000       8.15505000       0.00277400      -0.00719700      -0.00137700
O        6.23365000       9.20994000       7.79752000      -0.00443000       0.00360300      -0.00605000
O        3.90131000       6.14648000       9.78037000      -0.00243600      -0.00034400       0.00264100
O        9.03122000       9.54076000       6.04971000       0.00008100       0.00410500      -0.00060300
O        8.62727000       8.80287000       8.70487000       0.00204100      -0.00552500       0.00147100
O        4.35640000       7.09729000       7.12024000      -0.01137500      -0.00256600      -0.00084400
O        6.62993000       9.16343000       5.16119000       0.00820500      -0.00043100      -0.00685800
O        6.32515000       3.85815000       7.95318000      -0.00185900       0.00308000      -0.00349800
O        8.01393000       6.56929000       0.07828000       0.00165200      -0.00042800       0.00154000
O        7.11368000       9.21480000       2.49081000      -0.00501000      -0.00096000       0.00688800
O        4.80750000       6.15237000       4.20013000      -0.00069700       0.00059400      -0.00356200
O        9.91775000       9.56912000       0.74487000       0.00026000       0.00188300       0.00409400
O        9.47096000       8.77957000       3.38828000      -0.00295900      -0.00528000       0.00496900
O        5.22072000       6.98445000       1.78477000       0.00620300       0.00889900       0.00093000
O        5.78288000       3.90990000      10.50342000      -0.00210600       0.00104500       0.00196400
O        7.14954000       1.28722000       5.41184000       0.00228800       0.00199400      -0.00179900
O        7.58611000       6.51326000       2.67188000      -0.00403500       0.00283000       0.01134100
O       -0.82436000       6.95695000       7.15359000       0.00496900       0.00796500      -0.00095200
O        5.81037000       9.13175000      10.44630000       0.00163400       0.00394200       0.00092800
O       -1.29600000       0.92728000       9.82447000      -0.00744400      -0.00649100      -0.00405400
O        1.42231000       3.90475000       5.16066000       0.00385800      -0.00182500      -0.00251500
O        2.82365000       1.34072000       0.12378000       0.00718400      -0.00655700       0.00086400
O        2.38454000       1.27733000       2.77099000       0.00040700      -0.00218200      -0.00411800
O        1.93879000       3.97279000       2.52277000      -0.00182300       0.00202100       0.00498000
O        0.62062000       3.89009000      10.49050000      -0.00248300       0.00136000      -0.00327400
O       -0.42285000       0.91331000       4.51249000      -0.00373100      -0.00458100      -0.00161900
O        1.05194000       3.96354000       7.84072000      -0.00047200       0.00640900      -0.00112600
O        3.59699000       4.40254000       6.09025000      -0.00329300      -0.00027000       0.00233800
O        0.01932000       6.95000000       1.83617000       0.00665100      -0.00153500      -0.00195300
O        4.27677000       8.79558000       3.43970000       0.00121400      -0.00315100       0.00527400
O        1.93858000       1.35160000       5.42960000      -0.00514200      -0.00281500      -0.00817800
O        4.72101000       9.57560000       0.79149000       0.00351300       0.00809800       0.00443200
O        4.28567000       3.49265000       3.44880000      -0.00354200      -0.00329800       0.01014800
O        0.02125000       1.70233000       1.86162000       0.00716600       0.00151000      -0.00976300
O        3.39499000       3.50113000       8.78505000       0.00383400      -0.00139400       0.00239900
O       -0.39547000       6.14826000       4.49667000       0.00328300      -0.00617000      -0.00491100
O        1.90913000       9.22318000       2.52000000      -0.00201100       0.00837600      -0.00273500
O        2.37119000       6.53983000       2.74749000      -0.00756100       0.00351100       0.00371100
O        2.83802000       6.58941000       0.11135000      -0.00355600       0.00192700      -0.00673900
O        1.47106000       9.15531000       5.16198000       0.00097600       0.00485300      -0.00299800
O       -0.86471000       1.70034000       7.16575000       0.00670900      -0.00066100      -0.00611400
O        4.70974000       4.34518000       0.79830000       0.00846700       0.00588400       0.00907000
O        1.50112000       1.26262000       8.08430000      -0.00471000       0.00359800      -0.00907100
Zr       0.34880000       0.20910000       6.42166000      -0.00104300      -0.00427100       0.00149500
Zr       2.18103000       5.01516000       9.48332000       0.00108700      -0.00815100      -0.00269600
Zr       7.75470000       7.99737000       6.78065000      -0.00967100       0.00682500       0.00780700
Zr       2.62494000       2.82249000       6.85788000      -0.00387200       0.00483400      -0.00096500
Zr       5.14562000       7.60095000       8.96984000       0.00274800       0.00717300       0.00791200
Zr       0.80554000       2.40558000       3.76368000      -0.00587100       0.01090500      -0.00181800
Zr       3.50209000       2.83967000       1.53440000      -0.01124600       0.00048900      -0.01245000
Zr       3.13034000       5.04380000       4.18761000       0.00443700      -0.01000500      -0.00599500
Zr       7.37352000      10.24443000       9.44375000      -0.00467700       0.00019000      -0.00405100
Zr       6.05219000       7.64704000       3.75150000       0.00334600      -0.00723200      -0.00275700
Zr       2.62451000       8.07428000       6.83531000       0.00136200       0.00552300       0.00175100
Zr       8.24198000      10.25675000       4.16668000      -0.00203900      -0.00308000      -0.00057400
Zr       2.18928000      10.26747000       9.48868000      -0.00623800      -0.00180600       0.00235100
Zr       0.39859000       5.46574000       6.40912000       0.00776700      -0.01349400       0.00276400
Zr       6.45454000       0.22454000       1.06989000      -0.00274400      -0.00412400      -0.00660300
Zr       8.18052000       5.03216000       4.19156000      -0.00256400      -0.00213800      -0.00154400
Zr       8.68709000       2.86257000       1.50834000       0.00269500       0.00956000      -0.00386700
Zr       6.02792000       2.38766000       3.75976000       0.01372300       0.00711400       0.00782900
Zr       0.80546000       7.64430000       3.75854000      -0.00034000      -0.00032500      -0.00081800
Zr       3.47449000       8.09274000       1.53297000       0.00067500       0.00197500       0.00051400
Zr       3.05653000      10.27038000       4.18252000       0.00716400      -0.00202500       0.01197700
Zr       1.25455000       5.46231000       1.10547000      -0.00591900      -0.00483100       0.00394400
Zr       5.58502000       0.21581000       6.40308000      -0.00539400       0.00328800       0.01450700
Zr       7.35675000       5.03048000       9.42361000      -0.00777800       0.00130300       0.00969700
Zr       7.77202000       2.89495000       6.79467000      -0.01144500      -0.00208900      -0.00727900
Zr       5.17275000       2.43180000       9.04382000      -0.00305600      -0.00416500      -0.00620900
Zr      -0.05974000       7.64524000       9.06163000      -0.00206700       0.00701100      -0.00312500
Zr      -0.06350000       2.39868000       9.06494000       0.01534500       0.00620900       0.00878200
Zr       6.45644000       5.45438000       1.07899000       0.00441400       0.00068300       0.01653000
Zr       8.67536000       8.07849000       1.47620000      -0.00001900      -0.00542300      -0.00088200
Zr       1.24620000       0.22363000       1.11120000       0.00078900       0.00270000      -0.00718100
