95
Lattice="10.381444 0.0 -0.053824 0.0 10.490337 0.0 -1.746774 0.0 10.614441" Properties=species:S:1:pos:R:3:forces:R:3 energy=-895.85000114 stress="8.96918 -0.61964 -1.71919 -0.61964 4.73622 -0.89693 -1.71919 -0.89693 0.3962" pbc="T T T"
O        0.60964000       9.14161000      10.49352000       0.00277600      -0.00173100       0.00087500
O        8.68653000       3.59912000       8.68465000      -0.00228100      -0.00473400       0.00202500
O        4.36623000       1.74343000       7.12841000       0.00128100       0.00168400      -0.00546700
O        6.80510000       3.76716000       5.09496000       0.00154900      -0.00111800      -0.00258400
O        8.02586000       1.35722000       0.08401000      -0.00011800       0.00331400      -0.00184600
O        7.59038000       1.27192000       2.74163000       0.00147900      -0.00346200      -0.00068400
O        7.10396000       3.96555000       2.49419000       0.00254000      -0.00638700       0.00665800
O        4.77606000       0.90985000       4.49015000       0.00684600       0.00470300       0.00262500
O        9.07525000       4.33584000       6.06145000      -0.00016900       0.00033100       0.00035400
O        9.92536000       4.31394000       0.72654000      -0.00175100      -0.00377500       0.00201000
O        5.22709000       1.70310000       1.80782000      -0.00044100       0.00515100      -0.00020800
O        7.31999000       6.68883000       5.23148000      -0.00003700      -0.00293800      -0.00234600
O        1.95045000       6.61409000       5.39686000      -0.00003200      -0.00277900       0.00345700
O        1.52812000       6.51727000       8.07012000       0.00194200      -0.00436400       0.00635500
O        1.03951000       9.21737000       7.83806000       0.00113900       0.00245300      -0.00321300
O       -1.25256000       6.14924000       9.81021000       0.00115400       0.00118600       0.00293800
O        3.81528000       9.61832000       6.11091000       0.00274300       0.00839900       0.00350600
O        9.49515000       3.55955000       3.38579000      -0.00639200      -0.00283400       0.00168500
O        3.40131000       8.78278000       8.77387000      -0.00636500      -0.00210800       0.00269200
O        3.91887000       0.88882000       9.77797000       0.00227900      -0.00630000      -0.00198000
O        6.71329000       1.23869000       8.04488000      -0.00413100      -0.00258000       0.00039100
O        6.85436000       6.62666000       8.15514000      -0.00279400       0.00277900      -0.00191500
O        6.23350000       9.21023000       7.79748000      -0.00623800       0.00227600      -0.00061500
O        3.90115000       6.14634000       9.78014000      -0.00060000      -0.00379400       0.00554600
O        9.03141000       9.54082000       6.04991000      -0.00038400       0.00247700       0.00231000
O        8.62709000       8.80246000       8.70508000      -0.00469800       0.00160500       0.00214300
O        4.35625000       7.09768000       7.12010000      -0.00508800      -0.00228100       0.00128900
O        6.63077000       9.16305000       5.16148000      -0.00031700       0.00189100       0.00011500
O        6.32503000       3.85867000       7.95328000      -0.00206300       0.00141000      -0.00435200
O        8.01383000       6.56944000       0.07838000      -0.00053400       0.00052200       0.00455100
O        7.11330000       9.21439000       2.49174000      -0.00192000       0.00015700      -0.00356900
O        4.80973000       6.14933000       4.19723000      -0.00180000       0.00045600      -0.00213200
O        9.91788000       9.56915000       0.74485000      -0.00812100      -0.00370600       0.00288800
O        9.47102000       8.77960000       3.38812000      -0.00451900      -0.00605700       0.00424500
O        5.22215000       6.98651000       1.78373000       0.00327300       0.00521900      -0.00238000
O        5.78244000       3.91003000      10.50347000      -0.00247000       0.00077000       0.00500200
O        7.14946000       1.28722000       5.41203000      -0.00135200      -0.00048500       0.00108400
O        7.58603000       6.51287000       2.67266000       0.00269900       0.00099400       0.00312300
O       -0.82383000       6.95741000       7.15369000       0.00049100       0.00395400      -0.00619200
O        5.81019000       9.13209000      10.44664000       0.00247400      -0.00015200      -0.00085600
O       -1.29618000       0.92698000       9.82421000      -0.00215900      -0.00229500      -0.00829200
O        1.42241000       3.90483000       5.16055000       0.00116000      -0.00233200      -0.00063400
O        2.82399000       1.34021000       0.12348000       0.00906900      -0.00043600      -0.00488000
O        2.38460000       1.27667000       2.77014000       0.00038400       0.00595000      -0.00209500
O        1.93907000       3.97294000       2.52304000      -0.00274400       0.00189500      -0.00210500
O        0.62028000       3.88983000      10.49053000       0.00109900       0.00067000      -0.00129800
O       -0.42332000       0.91367000       4.51254000      -0.00123500      -0.00471200      -0.00264000
O        1.05150000       3.96367000       7.84055000       0.00227900       0.00234800       0.00492800
O        3.59430000       4.40470000       6.09134000       0.00166200      -0.00002800       0.00351000
O        0.01949000       6.95016000       1.83623000       0.00015500      -0.00064200      -0.00495600
O        4.27640000       8.79409000       3.44088000       0.00101300      -0.00719600       0.00140000
O        1.93853000       1.35172000       5.42855000      -0.00252700       0.00161500      -0.00032100
O        4.72056000       9.57691000       0.79206000       0.00168700       0.00535100       0.00342400
O        4.28455000       3.49081000       3.45031000       0.00404000      -0.01078200       0.00504400
O        0.02167000       1.70255000       1.86087000       0.00100500       0.00952300      -0.00677500
O        3.39440000       3.50032000       8.78567000      -0.00157100      -0.00060000       0.00064500
O       -0.39517000       6.14800000       4.49638000      -0.00052800      -0.00959100      -0.00177500
O        1.90903000       9.22314000       2.51975000       0.00123100       0.00644300      -0.00159700
O        2.37098000       6.54004000       2.74731000      -0.00293500      -0.00138800       0.00291000
O        2.83774000       6.58958000       0.11086000      -0.00231500      -0.00141700       0.00016800
O        1.47100000       9.15552000       5.16173000      -0.00142600       0.00383100       0.00214900
O       -0.86435000       1.70086000       7.16529000       0.00418200      -0.00038600      -0.00273600
O        4.70934000       4.34633000       0.79956000       0.00127400       0.00273300       0.00588400
O        1.50110000       1.26262000       8.08340000      -0.00105900       0.00436100      -0.00069300
Zr       0.34886000       0.20916000       6.42139000      -0.00028200      -0.00298900      -0.00469700
Zr       2.18103000       5.01474000       9.48366000       0.00365400       0.00890600      -0.00820200
Zr       7.75430000       7.99773000       6.78138000       0.00078200      -0.00230100      -0.00097100
Zr       2.62461000       2.82251000       6.85776000      -0.00339800      -0.00095700      -0.00327500
Zr       5.14519000       7.60128000       8.97035000       0.00067600      -0.00474000       0.00419300
Zr       0.80540000       2.40604000       3.76339000       0.00382900      -0.00656200      -0.00289200
Zr       3.50175000       2.83951000       1.53370000      -0.00195000      -0.00653900       0.00854800
Zr       3.13134000       5.04350000       4.18711000      -0.00307100       0.00082100      -0.00618500
Zr       7.37308000      10.24448000       9.44361000       0.00117900       0.00490500       0.00312800
Zr       6.05245000       7.64650000       3.75161000       0.00180800       0.00311100      -0.00056100
Zr       2.62428000       8.07457000       6.83562000      -0.00301200      -0.00154900      -0.00301400
Zr       8.24168000      10.25615000       4.16693000       0.00173500       0.00267000      -0.00344100
Zr       2.18897000      10.26779000       9.48900000       0.00155100      -0.00773300      -0.00388700
Zr       0.39928000       5.46518000       6.40897000       0.00414700       0.00321700       0.00324100
Zr       6.45444000       0.22443000       1.06967000       0.00377100       0.00125600       0.00150500
Zr       8.18043000       5.03195000       4.19198000       0.00187600       0.00651800       0.00171500
Zr       8.68720000       2.86284000       1.50838000      -0.00142200      -0.00095800      -0.00859800
Zr       6.02888000       2.38771000       3.76002000       0.00067700      -0.00601800      -0.00302800
Zr       0.80524000       7.64425000       3.75839000       0.00996700       0.00529500       0.00350700
Zr       3.47466000       8.09278000       1.53312000      -0.00465400       0.00178200       0.00035200
Zr       3.05736000      10.27008000       4.18291000      -0.00976500       0.00091800      -0.00540900
Zr       1.25420000       5.46238000       1.10564000      -0.00162200       0.00119300       0.00276700
Zr       5.58470000       0.21571000       6.40360000      -0.00325200       0.00653200      -0.00141500
Zr       7.35634000       5.03057000       9.42400000      -0.00534800      -0.00287500       0.00346100
Zr       7.77147000       2.89487000       6.79489000      -0.00200800      -0.00242900      -0.00076600
Zr       5.17236000       2.43179000       9.04354000       0.00500900       0.00313300       0.00156500
Zr      -0.05997000       7.64544000       9.06164000       0.00432600      -0.00016100      -0.00401300
Zr      -0.06301000       2.39886000       9.06522000       0.00040400       0.00149200      -0.00372100
Zr       6.45632000       5.45427000       1.08005000       0.00337900       0.00568500       0.00334200
Zr       8.67522000       8.07828000       1.47604000       0.00181200       0.00051100       0.00678200
Zr       1.24588000       0.22362000       1.11083000       0.00741200      -0.00519700       0.00317500
