95
Lattice="10.381444 0.0 -0.053824 0.0 10.490337 0.0 -1.746774 0.0 10.614441" Properties=species:S:1:pos:R:3:forces:R:3 energy=-895.85017199 stress="8.85996 -0.63992 -1.7176 -0.63992 4.75804 -0.87594 -1.7176 -0.87594 0.28907" pbc="T T T"
O        0.60990000       9.14139000      10.49371000      -0.00069100      -0.00013100       0.00041600
O        8.68610000       3.59818000       8.68523000      -0.00646600       0.00168500       0.00322600
O        4.36716000       1.74496000       7.12683000      -0.00545400       0.00667800      -0.00209200
O        6.80547000       3.76656000       5.09488000       0.00000700       0.00225400       0.00255800
O        8.02585000       1.35758000       0.08373000       0.00190800       0.00290900       0.00016200
O        7.59131000       1.27119000       2.74150000      -0.00169300      -0.00156400      -0.00191200
O        7.10390000       3.96496000       2.49490000       0.00407300       0.00023800      -0.00107500
O        4.77754000       0.90838000       4.48863000      -0.00601900      -0.00201400       0.00370400
O        9.07504000       4.33615000       6.06183000       0.00491600       0.00129000       0.00516000
O        9.92455000       4.31440000       0.72693000       0.00179500      -0.00123500       0.00004500
O        5.22815000       1.70460000       1.80697000       0.00010000      -0.00095500      -0.00248400
O        7.32004000       6.68913000       5.23150000       0.00159100      -0.00495600       0.00373100
O        1.95093000       6.61436000       5.39692000      -0.00440000      -0.00052500       0.00012300
O        1.52817000       6.51710000       8.07042000       0.00194700       0.00022300      -0.00065800
O        1.03980000       9.21779000       7.83813000      -0.00249000      -0.00166800      -0.00280600
O       -1.25272000       6.14931000       9.81055000      -0.00109000       0.00092100      -0.00263700
O        3.81502000       9.61951000       6.11135000      -0.00871600       0.00000200       0.00261800
O        9.49492000       3.55925000       3.38610000      -0.00068700      -0.00525800       0.00044200
O        3.40071000       8.78198000       8.77452000      -0.00616000      -0.00429900       0.00260600
O        3.91984000       0.88803000       9.77707000      -0.00296900      -0.00736400      -0.00276900
O        6.71282000       1.23880000       8.04523000      -0.00091200       0.00015600      -0.00244000
O        6.85417000       6.62646000       8.15508000      -0.00563100       0.00416600       0.00289300
O        6.23295000       9.21062000       7.79743000      -0.00406700      -0.00207600       0.00262300
O        3.90100000       6.14595000       9.78034000       0.00589800      -0.00130300       0.00389100
O        9.03154000       9.54102000       6.05026000       0.00111400       0.00151000       0.00237300
O        8.62653000       8.80227000       8.70542000      -0.00031900      -0.00082300       0.00200100
O        4.35590000       7.09786000       7.12007000      -0.00497200       0.00104000       0.00398100
O        6.63140000       9.16290000       5.16181000      -0.00439500       0.00139400       0.00069600
O        6.32479000       3.85923000       7.95306000      -0.00260800      -0.00027800       0.00069500
O        8.01368000       6.56962000       0.07880000      -0.00133200      -0.00079400       0.00287700
O        7.11287000       9.21403000       2.49223000       0.00054000       0.00196200      -0.00732400
O        4.81157000       6.14667000       4.19455000      -0.00566200       0.00052000      -0.00097500
O        9.91737000       9.56889000       0.74500000       0.00242500       0.00578400       0.00551200
O        9.47075000       8.77923000       3.38825000       0.00139300      -0.00804600       0.00610000
O        5.22359000       6.98857000       1.78265000      -0.00268400       0.00569500      -0.00455600
O        5.78188000       3.91020000      10.50387000      -0.00101100       0.00067800       0.00117700
O        7.14927000       1.28715000       5.41231000       0.00275800      -0.00180900       0.00035900
O        7.58620000       6.51258000       2.67345000       0.00570400       0.00094200      -0.00412300
O       -0.82339000       6.95805000       7.15330000       0.00390900       0.00010800      -0.00604100
O        5.81020000       9.13233000      10.44686000      -0.00110700      -0.00326000       0.00021700
O       -1.29642000       0.92661000       9.82339000       0.00751000      -0.00183900      -0.00184200
O        1.42253000       3.90471000       5.16042000       0.00003200      -0.00277800       0.00038800
O        2.82487000       1.33981000       0.12284000       0.00027900      -0.00057300      -0.00085800
O        2.38466000       1.27655000       2.76923000       0.00082200       0.00209100       0.00161700
O        1.93912000       3.97319000       2.52306000      -0.00130300      -0.00051500      -0.00030400
O        0.62008000       3.88962000      10.49052000       0.00414700       0.00108900       0.00104700
O       -0.42379000       0.91368000       4.51240000       0.00654300      -0.00249400      -0.00619900
O        1.05129000       3.96390000       7.84076000       0.00134300       0.00182200       0.00098100
O        3.59213000       4.40658000       6.09252000       0.00247800       0.00232200      -0.00274400
O        0.01957000       6.95026000       1.83593000       0.00130700       0.00298700       0.00145800
O        4.27614000       8.79222000       3.44197000      -0.01315500       0.00270700       0.00104800
O        1.93836000       1.35201000       5.42769000       0.00152700      -0.00058200      -0.00339900
O        4.72023000       9.57838000       0.79279000      -0.00494300      -0.00161000       0.00554400
O        4.28390000       3.48842000       3.45189000      -0.00450500      -0.00516800       0.00326100
O        0.02202000       1.70346000       1.85982000       0.00768500       0.00249400      -0.00635900
O        3.39368000       3.49959000       8.78624000      -0.00037400      -0.00103700      -0.00136000
O       -0.39496000       6.14709000       4.49607000       0.01250100       0.00282300      -0.00231600
O        1.90906000       9.22349000       2.51943000       0.00100200       0.00262500       0.00600500
O        2.37066000       6.54008000       2.74733000       0.00133600       0.00048100       0.00299800
O        2.83735000       6.58961000       0.11052000       0.00103900       0.00176100       0.00717000
O        1.47082000       9.15594000       5.16171000      -0.00010700      -0.00053700      -0.00137300
O       -0.86380000       1.70130000       7.16475000      -0.00017900      -0.00033800      -0.00281700
O        4.70899000       4.34751000       0.80102000      -0.00582800      -0.00167500       0.00381600
O        1.50106000       1.26293000       8.08263000       0.00336100       0.00001400       0.00242800
Zr       0.34888000       0.20903000       6.42076000      -0.00547500       0.00508300       0.00204600
Zr       2.18129000       5.01512000       9.48336000       0.00097800      -0.00099800       0.00744200
Zr       7.75415000       7.99782000       6.78185000      -0.00218400      -0.00005000      -0.00442700
Zr       2.62411000       2.82242000       6.85739000       0.00152900      -0.00309400       0.00319000
Zr       5.14484000       7.60116000       8.97111000       0.00207400      -0.00199800      -0.00467000
Zr       0.80562000       2.40585000       3.76296000      -0.00839500      -0.00131200      -0.00199100
Zr       3.50143000       2.83886000       1.53386000       0.00948400       0.00507500       0.00234800
Zr       3.13187000       5.04334000       4.18632000       0.00369900      -0.00009600       0.00110600
Zr       7.37285000      10.24489000       9.44377000      -0.00134500      -0.00139800       0.00010700
Zr       6.05284000       7.64640000       3.75171000      -0.00055800       0.00488300       0.00296200
Zr       2.62373000       8.07469000       6.83562000       0.01245500       0.00155500       0.00061200
Zr       8.24159000      10.25584000       4.16689000      -0.00193100       0.00347400       0.00117600
Zr       2.18888000      10.26752000       9.48898000       0.00939400       0.00325100      -0.00595800
Zr       0.40011000       5.46508000       6.40902000      -0.00953400       0.00121400      -0.00030000
Zr       6.45466000       0.22449000       1.06967000       0.00325500       0.00122200       0.00031000
Zr       8.18057000       5.03227000       4.19251000      -0.00066500      -0.00226800       0.00036900
Zr       8.68718000       2.86291000       1.50782000      -0.00521600      -0.00138500       0.00383400
Zr       6.02960000       2.38721000       3.75992000       0.00193700      -0.00127600      -0.00287800
Zr       0.80577000       7.64460000       3.75853000      -0.00638000      -0.00676200       0.00389800
Zr       3.47443000       8.09294000       1.53328000       0.01023200      -0.00448200      -0.00521800
Zr       3.05729000      10.26991000       4.18271000       0.00779400       0.00331600      -0.00169800
Zr       1.25381000       5.46260000       1.10595000       0.00222200      -0.00233100      -0.00713100
Zr       5.58422000       0.21609000       6.40379000       0.00430600       0.00012400      -0.00580100
Zr       7.35569000       5.03040000       9.42455000       0.00434600       0.00065000      -0.00533400
Zr       7.77102000       2.89462000       6.79507000       0.00486400      -0.00009200      -0.00315000
Zr       5.17239000       2.43204000       9.04349000      -0.00131200       0.00386600       0.00035300
Zr      -0.05983000       7.64551000       9.06138000      -0.00591200      -0.00432200       0.00131600
Zr      -0.06272000       2.39905000       9.06508000      -0.00217900      -0.00087200      -0.00421500
Zr       6.45645000       5.45456000       1.08104000      -0.00390000      -0.00173300       0.00173200
Zr       8.67525000       8.07822000       1.47642000      -0.00134000       0.00157300       0.00414100
Zr       1.24612000       0.22320000       1.11082000      -0.00330200       0.00331500      -0.01065700
